 +-------------------------------------------------+
 |                                                 |
 |      CCC   AA    SSS  TTTTT  EEEEE  PPPP        |
 |     C     A  A  S       T    E      P   P       |
 |     C     AAAA   SS     T    EEE    PPPP        |
 |     C     A  A     S    T    E      P           |
 |      CCC  A  A  SSS     T    EEEEE  P           |
 |                                                 |
 +-------------------------------------------------+
 |                                                 |
 | Welcome to Academic Release CASTEP version 21.11|          
 | Ab Initio Total Energy Program                  |
 |                                                 |
 | Authors:                                        |
 | M. Segall, M. Probert, C. Pickard, P. Hasnip,   |
 | S. Clark, K. Refson, J. R. Yates, M. Payne      |
 |                                                 |
 | Contributors:                                   |
 | P. Lindan, P. Haynes, J. White, V. Milman,      |
 | N. Govind, M. Gibson, P. Tulip, V. Cocula,      |
 | B. Montanari, D. Quigley, M. Glover,            |
 | L. Bernasconi, A. Perlov, M. Plummer,           |
 | E. McNellis, J. Meyer, J. Gale, D. Jochym       |
 | J. Aarons, B. Walker, R. Gillen, D. Jones       |
 | T. Green, I. J. Bush, C. J. Armstrong,          |
 | E. J. Higgins, E. L. Brown, M. S. McFly,        |
 | J. Wilkins, B-C. Shih, P. J. P. Byrne,          |
 | R. J. Maurer, J. C. Womack, J. Dziedzic,        |
 | A. Bartok-Partay, L. LeBlanc                    |
 |                                                 |
 | Copyright (c) 2000 - 2021                       |
 |                                                 |
 |     Distributed under license from Cambridge    |
 |     Enterprise for academic use only.           |
 |                                                 |
 | Please cite                                     |
 |                                                 |
 |     "First principles methods using CASTEP"     |
 |                                                 |
 |         Zeitschrift fuer Kristallographie       |
 |           220(5-6) pp. 567-570 (2005)           |
 |                                                 |
 | S. J. Clark, M. D. Segall, C. J. Pickard,       |
 | P. J. Hasnip, M. J. Probert, K. Refson,         |
 | M. C. Payne                                     |
 |                                                 |
 |       in all publications arising from          |
 |              your use of CASTEP                 |
 |                                                 |
 +-------------------------------------------------+
 |                                                 |
 |              http://www.castep.org              |
 |                                                 |
 +-------------------------------------------------+
 
 
 
 Compiled for linux_x86_64_cray-XT on Tue, 01 Mar 2022 09:19:15 +0000
 from code version 7d4405a8a+  HEAD  Sat Nov 27 13:38:33 2021 +0000
 Compiler: Cray Fortran 12.0.3; Optimisation: fast
 MATHLIBS: LibSci (LAPACK version 3.6.1)
 FFT Lib : fftw3 version commercial-fftw-3.3.8-sse2-avx-avx2-avx2_128
 Fundamental constants values: CODATA 2014
 
 Run started: Fri, 28 Oct 2022 14:07:30 -0100
 
 Atomic calculation performed for H: 1s1
 
 Converged in 41 iterations to an ae energy of -12.488 eV
 
   ============================================================                
   | Pseudopotential Report - Date of generation 28-10-2022   |                
   ------------------------------------------------------------                
   | Element: H Ionic charge:  1.00 Level of theory: PBE      |                
   | Atomic Solver: Koelling-Harmon                           |                
   |                                                          |                
   |               Reference Electronic Structure             |                
   |         Orbital         Occupation         Energy        |                
   |            1s              1.000           -0.239        |                
   |                                                          |                
   |                 Pseudopotential Definition               |                
   |        Beta     l      e      Rc     scheme   norm       |                
   |          1      0   -0.239   0.599     qc      0         |                
   |          2      0    0.250   0.599     qc      0         |                
   |         loc     1    0.000   0.599     pn      0         |                
   |                                                          |                
   | Augmentation charge Rinner = 0.421                       |                
   | No partial core correction                               |                
   ------------------------------------------------------------                
   | "1|0.6|13|15|17|10(qc=8)"                                |                
   ------------------------------------------------------------                
   |      Author: Chris J. Pickard, Cambridge University      |                
   ============================================================                
 
 Atomic calculation performed for C: 1s2 2s2 2p2
 
 Converged in 54 iterations to an ae energy of -1027.632 eV
 
   ============================================================                
   | Pseudopotential Report - Date of generation 28-10-2022   |                
   ------------------------------------------------------------                
   | Element: C Ionic charge:  4.00 Level of theory: PBE      |                
   | Atomic Solver: Koelling-Harmon                           |                
   |                                                          |                
   |               Reference Electronic Structure             |                
   |         Orbital         Occupation         Energy        |                
   |            2s              2.000           -0.505        |                
   |            2p              2.000           -0.194        |                
   |                                                          |                
   |                 Pseudopotential Definition               |                
   |        Beta     l      e      Rc     scheme   norm       |                
   |          1      0   -0.505   1.201     qc      1         |                
   |         loc     1   -0.194   1.201     qc      1         |                
   |                                                          |                
   | No charge augmentation                                   |                
   | Partial core correction Rc = 0.839                       |                
   ------------------------------------------------------------                
   | "1|1.2|17|20|23|20N:21L(qc=8)"                           |                
   ------------------------------------------------------------                
   |      Author: Chris J. Pickard, Cambridge University      |                
   ============================================================                
 
 Pseudo atomic calculation performed for H 1s1
 
 Converged in 13 iterations to a total energy of -12.4856 eV
 
 Pseudo atomic calculation performed for C 2s2 2p2
 
 Converged in 18 iterations to a total energy of -152.4291 eV
 Calculation parallelised over 128 processes.
 Data is distributed by G-vector(16-way) and k-point(8-way)

 ************************************ Title ************************************
 

 ***************************** General Parameters ******************************
  
 output verbosity                               : normal  (1)
 write checkpoint data to                       : 4x4.check
 type of calculation                            : transition state search
 stress calculation                             : off
 density difference calculation                 : off
 electron localisation func (ELF) calculation   : off
 Hirshfeld analysis                             : off
 polarisation (Berry phase) analysis            : off
 molecular orbital projected DOS                : off
 deltaSCF calculation                           : off
 unlimited duration calculation
 timing information                             : on
 memory usage estimate                          : on
 write extra output files                       : on
 write final potential to formatted file        : off
 write final density to formatted file          : off
 write structure in CELL formatted file         : on
 write BibTeX reference list                    : on
 write OTFG pseudopotential files               : on
 write electrostatic potential file             : on
 write bands file                               : on
 checkpoint writing                             : both castep_bin and check files
  
 output         length unit                     : A
 output           mass unit                     : amu
 output           time unit                     : ps
 output         charge unit                     : e
 output           spin unit                     : hbar/2
 output         energy unit                     : eV
 output          force unit                     : eV/A
 output       velocity unit                     : A/ps
 output       pressure unit                     : GPa
 output     inv_length unit                     : 1/A
 output      frequency unit                     : cm-1
 output force constant unit                     : eV/A**2
 output         volume unit                     : A**3
 output   IR intensity unit                     : (D/A)**2/amu
 output         dipole unit                     : D
 output         efield unit                     : eV/A/e
 output        entropy unit                     : J/mol/K
 output    efield chi2 unit                     : pm/V
  
 wavefunctions paging                           : none
 random number generator seed                   : randomised (140730768)
 data distribution                              : optimal for this architecture
 optimization strategy                          : maximize speed(+++)

 *********************** Exchange-Correlation Parameters ***********************
  
 using functional                               : Perdew Burke Ernzerhof
 relativistic treatment                         : Koelling-Harmon
 DFT+D: Semi-empirical dispersion correction    : on
 SEDC with                                      : MBD@rsSCS method

 ************************* Pseudopotential Parameters **************************
  
 pseudopotential representation                 : reciprocal space
 <beta|phi> representation                      : reciprocal space
 spin-orbit coupling                            : off

 **************************** Basis Set Parameters *****************************
  
 plane wave basis set cut-off                   :   800.0000   eV
 size of standard grid                          :     1.7500
 size of   fine   gmax                          :    25.3584   1/A
 finite basis set correction                    : none

 **************************** Electronic Parameters ****************************
  
 number of  electrons                           :  130.0    
 net charge of system                           :  0.000    
 treating system as non-spin-polarized
 number of bands                                :         98

 ********************* Electronic Minimization Parameters **********************
  
 Method: Treating system as metallic with density mixing treatment of electrons,
         and number of  SD  steps               :          1
         and number of  CG  steps               :          4
  
 total energy / atom convergence tol.           : 0.1000E-05   eV
 eigen-energy convergence tolerance             : 0.3469E-06   eV
 max force / atom convergence tol.              : ignored
 convergence tolerance window                   :          3   cycles
 max. number of SCF cycles                      :        100
 number of fixed-spin iterations                :         10
 smearing scheme                                : Gaussian
 smearing width                                 : 0.2000       eV
 Fermi energy convergence tolerance             : 0.2721E-13   eV
 periodic dipole correction                     : NONE

 ************************** Density Mixing Parameters **************************
  
 density-mixing scheme                          : Pulay
 max. length of mixing history                  :         20
 charge density mixing amplitude                : 0.8000    
 cut-off energy for mixing                      :  800.0       eV

 *********************** Population Analysis Parameters ************************
  
 Population analysis with cutoff                :  3.000       A
 Population analysis output                     : summary and pdos components

 ********************* Transition State Search Parameters **********************
  
 search method                                  : LSTQST
 LSTQST protocol                                : COMPLETELSTQST   
 max. number of QST iterations                  :         60
 max. number of CG  iterations                  :         60
 max. ionic |force| tolerance                   : 0.2571       eV/A
 max. ionic |displacement| tolerance            : 0.1000E-02   A

 *******************************************************************************
  
 
                           -------------------------------
                                      Unit Cell
                           -------------------------------
        Real Lattice(A)                      Reciprocal Lattice(1/A)
     9.8800000     0.0000000     0.0000000        0.635949930   0.367165863   0.000000000
    -4.9400000     8.5563310     0.0000000        0.000000000   0.734331726   0.000000000
     0.0000000     0.0000000    20.0339000        0.000000000   0.000000000   0.313627666
 
                       Lattice parameters(A)       Cell Angles
                    a =      9.880000          alpha =   90.000000
                    b =      9.880000          beta  =   90.000000
                    c =     20.033900          gamma =  120.000000
 
                       Current cell volume =          1693.596795       A**3
                                   density =             0.228129   AMU/A**3
                                           =             0.378817     g/cm^3
 
                           -------------------------------
                                     Cell Contents
                           -------------------------------
                         Total number of ions in cell =   34
                      Total number of species in cell =    2
                        Max number of any one species =   32
 
            xxxxxxxxxxxxxxxxxxxxxxxxxxxxxxxxxxxxxxxxxxxxxxxxxxxxxxxxxxxx
            x                          Reactant                        x
            xxxxxxxxxxxxxxxxxxxxxxxxxxxxxxxxxxxxxxxxxxxxxxxxxxxxxxxxxxxx
            x  Element    Atom        Fractional coordinates of atoms  x
            x            Number           u          v          w      x
            x----------------------------------------------------------x
            x  H            1         0.408121   0.322141   0.578899   x 
            x  H            2         0.678347   0.592240   0.578846   x 
            x  C            1         0.165731   0.083512   0.497457   x 
            x  C            2        -0.000483   0.000396   0.493062   x 
            x  C            3         0.165409   0.332102   0.495261   x 
            x  C            4        -0.000787   0.249621   0.490338   x 
            x  C            5         0.166847   0.582908   0.493871   x 
            x  C            6        -0.000321   0.499473   0.493128   x 
            x  C            7         0.166489   0.833625   0.497560   x 
            x  C            8         0.000086   0.750447   0.499218   x 
            x  C            9         0.417763   0.084094   0.498274   x 
            x  C           10         0.249650  -0.000222   0.499239   x 
            x  C           11         0.413356   0.331078   0.522600   x 
            x  C           12         0.245147   0.247627   0.501543   x 
            x  C           13         0.417745   0.582528   0.499168   x 
            x  C           14         0.248888   0.499408   0.495766   x 
            x  C           15         0.417320   0.833303   0.493881   x 
            x  C           16         0.250106   0.750112   0.495119   x 
            x  C           17         0.666844   0.083572   0.490551   x 
            x  C           18         0.500671   0.000186   0.493154   x 
            x  C           19         0.666833   0.333429   0.498732   x 
            x  C           20         0.501477   0.248030   0.503638   x 
            x  C           21         0.669212   0.586908   0.522565   x 
            x  C           22         0.497684   0.502611   0.508994   x 
            x  C           23         0.668089   0.834708   0.495237   x 
            x  C           24         0.500844   0.751332   0.495759   x 
            x  C           25         0.916660   0.083516   0.490502   x 
            x  C           26         0.750503   0.000655   0.490338   x 
            x  C           27         0.916560   0.333429   0.490536   x 
            x  C           28         0.750256   0.249956   0.491459   x 
            x  C           29         0.916021   0.582483   0.498220   x 
            x  C           30         0.752166   0.498769   0.503582   x 
            x  C           31         0.916565   0.834394   0.497414   x 
            x  C           32         0.752537   0.755006   0.501491   x 
            xxxxxxxxxxxxxxxxxxxxxxxxxxxxxxxxxxxxxxxxxxxxxxxxxxxxxxxxxxxx
 
            xxxxxxxxxxxxxxxxxxxxxxxxxxxxxxxxxxxxxxxxxxxxxxxxxxxxxxxxxxxx
            x                          Product                         x
            xxxxxxxxxxxxxxxxxxxxxxxxxxxxxxxxxxxxxxxxxxxxxxxxxxxxxxxxxxxx
            x  Element    Atom        Fractional coordinates of atoms  x
            x            Number           u          v          w      x
            x----------------------------------------------------------x
            x  H            1         0.538209   0.423702   0.675302   x 
            x  H            2         0.608667   0.504025   0.673046   x 
            x  C            1         0.166294   0.083460   0.498069   x 
            x  C            2        -0.000217   0.000249   0.497992   x 
            x  C            3         0.166319   0.333597   0.497980   x 
            x  C            4        -0.000343   0.250120   0.497901   x 
            x  C            5         0.166353   0.583859   0.497513   x 
            x  C            6        -0.000341   0.500257   0.497782   x 
            x  C            7         0.166319   0.833798   0.497857   x 
            x  C            8        -0.000223   0.750433   0.498182   x 
            x  C            9         0.416386   0.083451   0.497903   x 
            x  C           10         0.249730   0.000160   0.498083   x 
            x  C           11         0.416480   0.333710   0.498153   x 
            x  C           12         0.249703   0.250139   0.498032   x 
            x  C           13         0.416477   0.583842   0.498263   x 
            x  C           14         0.249670   0.500307   0.497888   x 
            x  C           15         0.416455   0.833800   0.497528   x 
            x  C           16         0.249771   0.750522   0.497434   x 
            x  C           17         0.666560   0.083530   0.497970   x 
            x  C           18         0.499895   0.000221   0.497749   x 
            x  C           19         0.666620   0.333725   0.498136   x 
            x  C           20         0.499885   0.250224   0.498022   x 
            x  C           21         0.666686   0.583934   0.498254   x 
            x  C           22         0.499921   0.500420   0.498319   x 
            x  C           23         0.666646   0.833835   0.497865   x 
            x  C           24         0.499932   0.750521   0.497858   x 
            x  C           25         0.916588   0.083577   0.497748   x 
            x  C           26         0.750024   0.000308   0.497797   x 
            x  C           27         0.916627   0.333717   0.498060   x 
            x  C           28         0.749974   0.250222   0.498294   x 
            x  C           29         0.916657   0.583938   0.497965   x 
            x  C           30         0.750021   0.500407   0.498188   x 
            x  C           31         0.916645   0.833860   0.498118   x 
            x  C           32         0.750106   0.750563   0.498165   x 
            xxxxxxxxxxxxxxxxxxxxxxxxxxxxxxxxxxxxxxxxxxxxxxxxxxxxxxxxxxxx
 
 
                         No user defined ionic velocities
 
                           -------------------------------
                                   Details of Species
                           -------------------------------
 
                               Mass of species in AMU
                                    H    1.0079400
                                    C   12.0107000
 
                          Electric Quadrupole Moment (Barn)
                                    H    0.0028600 Isotope  2
                                    C    0.0332700 Isotope 11
 
                          Files used for pseudopotentials:
                                    H 1|0.6|13|15|17|10(qc=8)
                                    C 1|1.2|17|20|23|20N:21L(qc=8)
 
                           -------------------------------
                              k-Points For BZ Sampling
                           -------------------------------
                       MP grid size for SCF calculation is  4  4  1
                            with an offset of   0.000  0.000  0.000
                       Number of kpoints used =   8
 
                           -------------------------------
                               Symmetry and Constraints
                           -------------------------------
 
                      Maximum deviation from symmetry =  0.00000         ANG
 
                      Number of symmetry operations   = 1
         There are no ionic constraints specified or generated for this cell
                      Point group of crystal =     1: C1, 1, 1
                      Space group of crystal =     1: P1, P 1
 
             Set iprint > 1 for details on symmetry rotations/translations
 
                         Centre of mass is NOT constrained
 
                         Number of cell constraints= 6
                         Cell constraints are:  0 0 0 0 0 0
 
                         External pressure/stress (GPa)
                          0.00000   0.00000   0.00000
                                    0.00000   0.00000
                                              0.00000
 
                                --------------------
                                  DFT-D parameters
                                --------------------
 
                          Dispersion-correction scheme : MBD*      
                        Parameter sR :   0.830000 (default)
 
        xxxxxxxxxxxxxxxxxxxxxxxxxxxxxxxxxxxxxxxxxxxxxxxxxxxxxxxxxxxxxxxxxxxx
        x              Atomic DFT-D parameters                             x
        x  Species      C6            alpha        R0                      x
        x               eV A^6        A^3          A                       x
        x------------------------------------------------------------------x
        x  H             3.8839       0.6668       1.6404   (default)      x
        x  C            27.8448       1.7782       1.8997   (default)      x
        xxxxxxxxxxxxxxxxxxxxxxxxxxxxxxxxxxxxxxxxxxxxxxxxxxxxxxxxxxxxxxxxxxxx
 
  
+---------------- MEMORY AND SCRATCH DISK ESTIMATES PER PROCESS --------------+
|                                                     Memory          Disk    |
| Baseline code, static data and system overhead      772.0 MB         0.0 MB |
| BLAS internal memory storage                          0.0 MB         0.0 MB |
| Model and support data                               37.8 MB         0.0 MB |
| Electronic energy minimisation requirements          62.0 MB         0.0 MB |
| Force calculation requirements                       12.6 MB         0.0 MB |
|                                               ----------------------------- |
| Approx. total storage required per process          871.7 MB         0.0 MB |
|                                                                             |
| Requirements will fluctuate during execution and may exceed these estimates |
+-----------------------------------------------------------------------------+
Calculating approximate eigenstates for fixed initial Hamiltonian
Cut-off for approx. calculation is  119.774 eV
Improving approx. states at cut-off of  462.594 eV
Resetting cut-off to  800.000 eV
Calculating total energy with cut-off of  800.000 eV.
------------------------------------------------------------------------ <-- SCF
SCF loop      Energy           Fermi           Energy gain       Timer   <-- SCF
                               energy          per atom          (sec)   <-- SCF
------------------------------------------------------------------------ <-- SCF
Initial  -4.75053021E+003  0.00000000E+000                        10.26  <-- SCF
      1  -5.21493542E+003 -5.50362761E+000   1.36589768E+001      15.72  <-- SCF
      2  -5.21516809E+003 -5.50512543E+000   6.84337289E-003      21.55  <-- SCF
      3  -5.20187933E+003 -4.26277050E+000  -3.90845791E-001      27.72  <-- SCF
      4  -5.20112502E+003 -3.71548011E+000  -2.21856647E-002      33.91  <-- SCF
      5  -5.20098758E+003 -3.60543620E+000  -4.04250983E-003      40.13  <-- SCF
      6  -5.20079522E+003 -3.38268419E+000  -5.65748652E-003      46.18  <-- SCF
      7  -5.20073149E+003 -3.20431188E+000  -1.87447655E-003      52.44  <-- SCF
      8  -5.20066077E+003 -2.96809321E+000  -2.07990735E-003      58.42  <-- SCF
      9  -5.20061970E+003 -2.83290464E+000  -1.20796046E-003      64.35  <-- SCF
     10  -5.20061940E+003 -2.70933633E+000  -8.75197044E-006      70.31  <-- SCF
     11  -5.20063124E+003 -2.61876849E+000   3.47995975E-004      76.21  <-- SCF
     12  -5.20064031E+003 -2.55037723E+000   2.66906555E-004      82.00  <-- SCF
     13  -5.20064304E+003 -2.47267306E+000   8.04322697E-005      87.57  <-- SCF
     14  -5.20064116E+003 -2.41155871E+000  -5.55449813E-005      92.97  <-- SCF
     15  -5.20064046E+003 -2.34265996E+000  -2.05901932E-005      98.30  <-- SCF
     16  -5.20064043E+003 -2.29227274E+000  -7.16916638E-007     103.53  <-- SCF
     17  -5.20064684E+003 -2.24917584E+000   1.88563286E-004     108.50  <-- SCF
     18  -5.20065187E+003 -2.23688973E+000   1.47898869E-004     113.29  <-- SCF
     19  -5.20065424E+003 -2.23418179E+000   6.95290481E-005     117.96  <-- SCF
     20  -5.20065478E+003 -2.23371153E+000   1.58798325E-005     122.67  <-- SCF
     21  -5.20065487E+003 -2.23380681E+000   2.79041442E-006     127.51  <-- SCF
     22  -5.20065492E+003 -2.23385009E+000   1.34887425E-006     132.27  <-- SCF
     23  -5.20065499E+003 -2.23351602E+000   2.17497721E-006     137.10  <-- SCF
     24  -5.20065505E+003 -2.23279634E+000   1.64412216E-006     141.92  <-- SCF
     25  -5.20065509E+003 -2.23252614E+000   1.15357249E-006     146.62  <-- SCF
     26  -5.20065512E+003 -2.23252430E+000   9.60300579E-007     151.45  <-- SCF
     27  -5.20065515E+003 -2.23246774E+000   9.16615003E-007     156.26  <-- SCF
     28  -5.20065516E+003 -2.23242932E+000   2.69542905E-007     161.09  <-- SCF
     29  -5.20065516E+003 -2.23238758E+000   1.19562748E-007     165.73  <-- SCF
------------------------------------------------------------------------ <-- SCF
 
Final energy, E             =  -5200.430862546     eV
Final free energy (E-TS)    =  -5200.655162270     eV
(energies not corrected for finite basis set)
 
NB est. 0K energy (E-0.5TS)      =  -5200.543012408     eV
 
 WARNING: Your unit cell might be too small to get accurate results for van der Waals
(SEDC) Total Energy Correction : -0.279175E+01 eV

Dispersion corrected final energy*, Ecor          =  -5203.222612741     eV
Dispersion corrected final free energy* (Ecor-TS) =  -5203.446912465     eV
NB dispersion corrected est. 0K energy* (Ecor-0.5TS) =  -5203.334762603     eV

Writing analysis data to 4x4.castep_bin

Writing model to 4x4.check
++++++++++++++++++++++++++++++++++++++++++++++++++++++++++++++++++++++++++++++++
+++++++++++++++++++++++ Starting Transition State Search +++++++++++++++++++++++
++++++++++++++++++++++++++++++++++++++++++++++++++++++++++++++++++++++++++++++++
 
++++++++++++++++++++++++++++++++++++++++++++++++++++++++++++++++++++++++++++++++
+++++++++++++++++++++++ Linear synchronous transit method ++++++++++++++++++++++
++++++++++++++++++++++++++++++++++++++++++++++++++++++++++++++++++++++++++++++++
 
 +++++++++++++++++++++++++++++++++++++++++++++++++++++++
 Difference vector: Fractional components 
 +++++++++++++++++++++++++++++++++++++++++++++++++++++++
    0.130088673    0.101561011    0.096403006
   -0.069679727   -0.088215791    0.094199643
    0.000563390   -0.000051446    0.000612397
    0.000265715   -0.000146686    0.004930107
    0.000909790    0.001495619    0.002719066
    0.000443721    0.000499416    0.007563456
   -0.000494670    0.000950933    0.003642149
   -0.000020087    0.000783979    0.004654431
   -0.000170084    0.000173589    0.000296271
   -0.000309864   -0.000014014   -0.001036178
   -0.001376558   -0.000642728   -0.000370535
    0.000079849    0.000381991   -0.001155677
    0.003124522    0.002632387   -0.024447115
    0.004555757    0.002512060   -0.003510607
   -0.001268128    0.001314025   -0.000904903
    0.000782024    0.000898943    0.002122682
   -0.000864486    0.000497427    0.003646769
   -0.000335284    0.000410346    0.002314995
   -0.000284343   -0.000042380    0.007419284
   -0.000776357    0.000035003    0.004594942
   -0.000212557    0.000296345   -0.000595917
   -0.001592283    0.002193289   -0.005616406
   -0.002526095   -0.002974193   -0.024311791
    0.002236715   -0.002190606   -0.010674793
   -0.001443441   -0.000873171    0.002628264
   -0.000911735   -0.000810522    0.002099105
   -0.000071466    0.000061262    0.007246245
   -0.000479424   -0.000347164    0.007458563
    0.000066535    0.000287737    0.007524012
   -0.000281950    0.000265416    0.006835147
    0.000636225    0.001454488   -0.000255462
   -0.002144811    0.001638402   -0.005394202
    0.000080067   -0.000534262    0.000703668
   -0.002430827   -0.004442536   -0.003326058
 +++++++++++++++++++++++++++++++++++++++++++++++++++++++
 
 +++++++++++++++++++++++++++++++++++++++++++++++++++++++
 Periodic cell setup complete
 +++++++++++++++++++++++++++++++++++++++++++++++++++++++
 
------------------------------------------------------------------------ <-- SCF
SCF loop      Energy           Fermi           Energy gain       Timer   <-- SCF
                               energy          per atom          (sec)   <-- SCF
------------------------------------------------------------------------ <-- SCF
Initial  -5.20043103E+003  0.00000000E+000                       171.19  <-- SCF
      1  -5.20065517E+003 -2.23238959E+000   6.59224944E-003     175.34  <-- SCF
      2  -5.20065517E+003 -2.23238959E+000   1.40575752E-011     179.76  <-- SCF
      3  -5.20065517E+003 -2.23238945E+000   1.09644310E-008     184.01  <-- SCF
      4  -5.20065517E+003 -2.23239048E+000   6.48208897E-009     188.47  <-- SCF
------------------------------------------------------------------------ <-- SCF
 
Final energy, E             =  -5200.430866123     eV
Final free energy (E-TS)    =  -5200.655165788     eV
(energies not corrected for finite basis set)
 
NB est. 0K energy (E-0.5TS)      =  -5200.543015955     eV
 

Dispersion corrected final energy*, Ecor          =  -5203.222616319     eV
Dispersion corrected final free energy* (Ecor-TS) =  -5203.446915983     eV
NB dispersion corrected est. 0K energy* (Ecor-0.5TS) =  -5203.334766151     eV
 +++++++++++++++++++++++++++++++++++++++++++++++++++++++
 Reactant                      
 Path coordinate:                         0.00000
 Energy:                              -5203.44692 eV                            
 +++++++++++++++++++++++++++++++++++++++++++++++++++++++
 
            ++++++++++++++++++++++++++++++++++++++++++++++++++++++++++++++++++++
                             Coordinates: Fractional components
            ++++++++++++++++++++++++++++++++++++++++++++++++++++++++++++++++++++
            +  Element    Atom                                                 +
            +            Number           x          y          z              +
            ++++++++++++++++++++++++++++++++++++++++++++++++++++++++++++++++++++
            +H             1          0.408121   0.322141   0.578899           +
            +H             2          0.678347   0.592240   0.578846           +
            +C             1          0.165731   0.083512   0.497457           +
            +C             2         -0.000483   0.000396   0.493062           +
            +C             3          0.165409   0.332102   0.495261           +
            +C             4         -0.000787   0.249621   0.490338           +
            +C             5          0.166847   0.582908   0.493871           +
            +C             6         -0.000321   0.499473   0.493128           +
            +C             7          0.166489   0.833625   0.497560           +
            +C             8          0.000086   0.750447   0.499218           +
            +C             9          0.417763   0.084094   0.498274           +
            +C            10          0.249650  -0.000222   0.499239           +
            +C            11          0.413356   0.331078   0.522600           +
            +C            12          0.245147   0.247627   0.501543           +
            +C            13          0.417745   0.582528   0.499168           +
            +C            14          0.248888   0.499408   0.495766           +
            +C            15          0.417320   0.833303   0.493881           +
            +C            16          0.250106   0.750112   0.495119           +
            +C            17          0.666844   0.083572   0.490551           +
            +C            18          0.500671   0.000186   0.493154           +
            +C            19          0.666833   0.333429   0.498732           +
            +C            20          0.501477   0.248030   0.503638           +
            +C            21          0.669212   0.586908   0.522565           +
            +C            22          0.497684   0.502611   0.508994           +
            +C            23          0.668089   0.834708   0.495237           +
            +C            24          0.500844   0.751332   0.495759           +
            +C            25          0.916660   0.083516   0.490502           +
            +C            26          0.750503   0.000655   0.490338           +
            +C            27          0.916560   0.333429   0.490536           +
            +C            28          0.750256   0.249956   0.491459           +
            +C            29          0.916021   0.582483   0.498220           +
            +C            30          0.752166   0.498769   0.503582           +
            +C            31          0.916565   0.834394   0.497414           +
            +C            32          0.752537   0.755006   0.501491           +
            ++++++++++++++++++++++++++++++++++++++++++++++++++++++++++++++++++++
                           Forces: Cartesian components: eV/A                          
            ++++++++++++++++++++++++++++++++++++++++++++++++++++++++++++++++++++
            +  Element    Atom                                                 +
            +            Number           x          y          z              +
            ++++++++++++++++++++++++++++++++++++++++++++++++++++++++++++++++++++
            +H             1         -0.003123  -0.000934   0.001077           +
            +H             2         -0.000487   0.004552   0.006456           +
            +C             1         -0.001967  -0.003204  -0.005552           +
            +C             2          0.004024   0.004270  -0.000076           +
            +C             3          0.001070   0.003240  -0.001945           +
            +C             4          0.001667   0.001778   0.001870           +
            +C             5         -0.001435  -0.000357   0.000361           +
            +C             6         -0.002199  -0.000958   0.003518           +
            +C             7         -0.001218  -0.005236  -0.003106           +
            +C             8          0.000208   0.002625  -0.001006           +
            +C             9          0.000688  -0.001993  -0.003017           +
            +C            10         -0.001455   0.003345   0.001001           +
            +C            11          0.003267  -0.003037   0.004925           +
            +C            12          0.003485  -0.001670   0.003891           +
            +C            13          0.000182   0.001321   0.000272           +
            +C            14          0.003800   0.000327   0.003675           +
            +C            15          0.002225  -0.003916   0.000155           +
            +C            16         -0.000989   0.001720   0.006965           +
            +C            17          0.001964  -0.002198  -0.006108           +
            +C            18         -0.000868   0.006160   0.003895           +
            +C            19         -0.000699   0.003288  -0.005488           +
            +C            20         -0.002569   0.002374  -0.002255           +
            +C            21          0.003284   0.000760   0.000103           +
            +C            22          0.003555  -0.003017   0.005605           +
            +C            23         -0.000512  -0.006741  -0.001480           +
            +C            24          0.000706  -0.001756   0.003120           +
            +C            25         -0.003291  -0.005249  -0.004342           +
            +C            26          0.000358   0.004494   0.000816           +
            +C            27         -0.002652   0.000467  -0.005786           +
            +C            28         -0.004416   0.002473   0.000221           +
            +C            29         -0.001642   0.000982  -0.002580           +
            +C            30         -0.001759  -0.000721  -0.002171           +
            +C            31         -0.003444  -0.006805  -0.003816           +
            +C            32          0.004241   0.003615   0.000804           +
            ++++++++++++++++++++++++++++++++++++++++++++++++++++++++++++++++++++
 
------------------------------------------------------------------------ <-- SCF
SCF loop      Energy           Fermi           Energy gain       Timer   <-- SCF
                               energy          per atom          (sec)   <-- SCF
------------------------------------------------------------------------ <-- SCF
Initial  -5.01935780E+003  0.00000000E+000                       190.12  <-- SCF
      1  -5.17189879E+003 -1.21782981E+000   4.48649967E+000     195.04  <-- SCF
      2  -5.20554302E+003 -2.26806580E+000   9.89536413E-001     199.82  <-- SCF
      3  -5.20362719E+003 -2.27406063E+000  -5.63479606E-002     205.57  <-- SCF
      4  -5.20367791E+003 -2.29851275E+000   1.49156606E-003     212.67  <-- SCF
      5  -5.20367634E+003 -2.30888909E+000  -4.59835229E-005     219.02  <-- SCF
      6  -5.20366724E+003 -2.32128157E+000  -2.67786626E-004     225.25  <-- SCF
      7  -5.20366466E+003 -2.33214930E+000  -7.58151503E-005     231.46  <-- SCF
      8  -5.20366430E+003 -2.34751547E+000  -1.06495315E-005     236.81  <-- SCF
      9  -5.20366572E+003 -2.35900013E+000   4.17087475E-005     242.05  <-- SCF
     10  -5.20366733E+003 -2.37006167E+000   4.74201896E-005     247.16  <-- SCF
     11  -5.20366764E+003 -2.37794404E+000   9.23505624E-006     252.32  <-- SCF
     12  -5.20366733E+003 -2.38717210E+000  -9.23052918E-006     257.43  <-- SCF
     13  -5.20366753E+003 -2.39321810E+000   5.99585034E-006     262.48  <-- SCF
     14  -5.20366808E+003 -2.39817630E+000   1.59351118E-005     267.44  <-- SCF
     15  -5.20366855E+003 -2.39938840E+000   1.39806917E-005     272.27  <-- SCF
     16  -5.20366898E+003 -2.39988805E+000   1.27810290E-005     276.98  <-- SCF
     17  -5.20366920E+003 -2.40005019E+000   6.44132166E-006     281.72  <-- SCF
     18  -5.20366933E+003 -2.39987610E+000   3.74484721E-006     286.46  <-- SCF
     19  -5.20366938E+003 -2.39990679E+000   1.53685906E-006     291.22  <-- SCF
     20  -5.20366941E+003 -2.39998800E+000   7.36211434E-007     295.98  <-- SCF
     21  -5.20366941E+003 -2.40011411E+000   1.76648378E-007     300.80  <-- SCF
------------------------------------------------------------------------ <-- SCF
 
Final energy, E             =  -5203.665607548     eV
Final free energy (E-TS)    =  -5203.669414616     eV
(energies not corrected for finite basis set)
 
NB est. 0K energy (E-0.5TS)      =  -5203.667511082     eV
 
(SEDC) Total Energy Correction : -0.271861E+01 eV

Dispersion corrected final energy*, Ecor          =  -5206.384219599     eV
Dispersion corrected final free energy* (Ecor-TS) =  -5206.388026667     eV
NB dispersion corrected est. 0K energy* (Ecor-0.5TS) =  -5206.386123133     eV
 +++++++++++++++++++++++++++++++++++++++++++++++++++++++
 Product                       
 Path coordinate:                         1.00000
 Energy:                              -5206.38803 eV                            
 +++++++++++++++++++++++++++++++++++++++++++++++++++++++
 
            ++++++++++++++++++++++++++++++++++++++++++++++++++++++++++++++++++++
                             Coordinates: Fractional components
            ++++++++++++++++++++++++++++++++++++++++++++++++++++++++++++++++++++
            +  Element    Atom                                                 +
            +            Number           x          y          z              +
            ++++++++++++++++++++++++++++++++++++++++++++++++++++++++++++++++++++
            +H             1          0.538209   0.423702   0.675302           +
            +H             2          0.608667   0.504025   0.673046           +
            +C             1          0.166294   0.083460   0.498069           +
            +C             2         -0.000217   0.000249   0.497992           +
            +C             3          0.166319   0.333597   0.497980           +
            +C             4         -0.000343   0.250120   0.497901           +
            +C             5          0.166353   0.583859   0.497513           +
            +C             6         -0.000341   0.500257   0.497782           +
            +C             7          0.166319   0.833798   0.497857           +
            +C             8         -0.000223   0.750433   0.498182           +
            +C             9          0.416386   0.083451   0.497903           +
            +C            10          0.249730   0.000160   0.498083           +
            +C            11          0.416480   0.333710   0.498153           +
            +C            12          0.249703   0.250139   0.498032           +
            +C            13          0.416477   0.583842   0.498263           +
            +C            14          0.249670   0.500307   0.497888           +
            +C            15          0.416455   0.833800   0.497528           +
            +C            16          0.249771   0.750522   0.497434           +
            +C            17          0.666560   0.083530   0.497970           +
            +C            18          0.499895   0.000221   0.497749           +
            +C            19          0.666620   0.333725   0.498136           +
            +C            20          0.499885   0.250224   0.498022           +
            +C            21          0.666686   0.583934   0.498254           +
            +C            22          0.499921   0.500420   0.498319           +
            +C            23          0.666646   0.833835   0.497865           +
            +C            24          0.499932   0.750521   0.497858           +
            +C            25          0.916588   0.083577   0.497748           +
            +C            26          0.750024   0.000308   0.497797           +
            +C            27          0.916627   0.333717   0.498060           +
            +C            28          0.749974   0.250222   0.498294           +
            +C            29          0.916657   0.583938   0.497965           +
            +C            30          0.750021   0.500407   0.498188           +
            +C            31          0.916645   0.833860   0.498118           +
            +C            32          0.750106   0.750563   0.498165           +
            ++++++++++++++++++++++++++++++++++++++++++++++++++++++++++++++++++++
                           Forces: Cartesian components: eV/A                          
            ++++++++++++++++++++++++++++++++++++++++++++++++++++++++++++++++++++
            +  Element    Atom                                                 +
            +            Number           x          y          z              +
            ++++++++++++++++++++++++++++++++++++++++++++++++++++++++++++++++++++
            +H             1         -0.000912  -0.006015   0.007303           +
            +H             2          0.003633   0.004272   0.012822           +
            +C             1          0.011122   0.026327   0.001651           +
            +C             2          0.005395  -0.033139  -0.011768           +
            +C             3         -0.018387  -0.016724  -0.010122           +
            +C             4          0.013406   0.013592  -0.003080           +
            +C             5         -0.005852  -0.045863   0.025358           +
            +C             6          0.008247   0.042054   0.006955           +
            +C             7          0.018265   0.007732   0.009065           +
            +C             8         -0.007925   0.007468  -0.050051           +
            +C             9          0.005587   0.026777   0.007589           +
            +C            10         -0.007668  -0.013672  -0.033891           +
            +C            11          0.006854  -0.032459  -0.005066           +
            +C            12         -0.007168   0.021003   0.013132           +
            +C            13         -0.005515  -0.018563  -0.057357           +
            +C            14          0.004276   0.032419   0.009438           +
            +C            15          0.002828   0.030505   0.014621           +
            +C            16         -0.003276  -0.004538   0.029465           +
            +C            17          0.003594   0.017799  -0.001403           +
            +C            18         -0.006336  -0.034984   0.003798           +
            +C            19          0.019825  -0.025319   0.017328           +
            +C            20         -0.012084  -0.005113   0.014693           +
            +C            21          0.009547  -0.037443   0.002088           +
            +C            22         -0.004858   0.020680  -0.010402           +
            +C            23         -0.017029   0.038867   0.017803           +
            +C            24          0.005348   0.008063   0.005059           +
            +C            25         -0.015332   0.025001   0.037755           +
            +C            26          0.011466  -0.055526  -0.000329           +
            +C            27         -0.010877  -0.013419  -0.008642           +
            +C            28          0.003875   0.016106  -0.053688           +
            +C            29          0.014047  -0.044434   0.025991           +
            +C            30         -0.003500   0.037425  -0.012924           +
            +C            31         -0.004617   0.010409   0.016236           +
            +C            32         -0.015979   0.000713  -0.019429           +
            ++++++++++++++++++++++++++++++++++++++++++++++++++++++++++++++++++++
 
 +++++++++++++++++++++++++++++++++++++++++++++++++++++++
 LST maximum bracketing from reactant
 +++++++++++++++++++++++++++++++++++++++++++++++++++++++
 
------------------------------------------------------------------------ <-- SCF
SCF loop      Energy           Fermi           Energy gain       Timer   <-- SCF
                               energy          per atom          (sec)   <-- SCF
------------------------------------------------------------------------ <-- SCF
Initial  -5.04783044E+003  0.00000000E+000                       305.62  <-- SCF
      1  -5.17479004E+003 -1.68244467E+000   3.73410586E+000     310.63  <-- SCF
      2  -5.19962964E+003 -2.64706347E+000   7.30576404E-001     315.35  <-- SCF
      3  -5.19853129E+003 -2.50239698E+000  -3.23042231E-002     321.36  <-- SCF
      4  -5.19854757E+003 -2.56684384E+000   4.78776892E-004     327.31  <-- SCF
      5  -5.19855472E+003 -2.55657494E+000   2.10358167E-004     333.43  <-- SCF
      6  -5.19856090E+003 -2.56151557E+000   1.81578395E-004     339.67  <-- SCF
      7  -5.19856844E+003 -2.56719266E+000   2.21753527E-004     345.95  <-- SCF
      8  -5.19857108E+003 -2.57203207E+000   7.76701737E-005     351.64  <-- SCF
      9  -5.19857259E+003 -2.57979042E+000   4.45178135E-005     356.67  <-- SCF
     10  -5.19857321E+003 -2.58693943E+000   1.81845234E-005     361.66  <-- SCF
     11  -5.19857303E+003 -2.59922446E+000  -5.24546539E-006     366.64  <-- SCF
     12  -5.19857260E+003 -2.61341951E+000  -1.25576123E-005     371.73  <-- SCF
     13  -5.19857253E+003 -2.62407369E+000  -2.04254287E-006     376.66  <-- SCF
     14  -5.19857259E+003 -2.63113339E+000   1.53727467E-006     381.56  <-- SCF
     15  -5.19857284E+003 -2.63547454E+000   7.62279132E-006     386.42  <-- SCF
     16  -5.19857321E+003 -2.63765488E+000   1.08575791E-005     391.27  <-- SCF
     17  -5.19857346E+003 -2.63878967E+000   7.31590877E-006     396.13  <-- SCF
     18  -5.19857361E+003 -2.63922157E+000   4.28488839E-006     400.96  <-- SCF
     19  -5.19857368E+003 -2.63960957E+000   2.12000463E-006     405.75  <-- SCF
     20  -5.19857371E+003 -2.64000303E+000   9.92196762E-007     410.53  <-- SCF
     21  -5.19857372E+003 -2.64036212E+000   2.64052898E-007     415.21  <-- SCF
     22  -5.19857372E+003 -2.64085844E+000  -8.29458583E-008     419.88  <-- SCF
------------------------------------------------------------------------ <-- SCF
 
Final energy, E             =  -5198.455053499     eV
Final free energy (E-TS)    =  -5198.573720273     eV
(energies not corrected for finite basis set)
 
NB est. 0K energy (E-0.5TS)      =  -5198.514386886     eV
 
(SEDC) Total Energy Correction : -0.280853E+01 eV

Dispersion corrected final energy*, Ecor          =  -5201.263579156     eV
Dispersion corrected final free energy* (Ecor-TS) =  -5201.382245929     eV
NB dispersion corrected est. 0K energy* (Ecor-0.5TS) =  -5201.322912542     eV
 +++++++++++++++++++++++++++++++++++++++++++++++++++++++
 Path coordinate:                         0.22250
 Energy:                              -5201.38225 eV                            
 +++++++++++++++++++++++++++++++++++++++++++++++++++++++
 
------------------------------------------------------------------------ <-- SCF
SCF loop      Energy           Fermi           Energy gain       Timer   <-- SCF
                               energy          per atom          (sec)   <-- SCF
------------------------------------------------------------------------ <-- SCF
Initial  -5.18469188E+003  0.00000000E+000                       424.76  <-- SCF
      1  -5.19695116E+003 -2.58223191E+000   3.60567043E-001     429.38  <-- SCF
      2  -5.19851522E+003 -2.72222916E+000   4.60017278E-002     435.24  <-- SCF
      3  -5.19841046E+003 -2.72552863E+000  -3.08098672E-003     441.19  <-- SCF
      4  -5.19840729E+003 -2.72776247E+000  -9.34051274E-005     447.97  <-- SCF
      5  -5.19840620E+003 -2.72957342E+000  -3.19203523E-005     454.20  <-- SCF
      6  -5.19840607E+003 -2.73289560E+000  -3.97174949E-006     459.83  <-- SCF
      7  -5.19840643E+003 -2.73521156E+000   1.05081445E-005     464.67  <-- SCF
      8  -5.19840732E+003 -2.74006706E+000   2.62657733E-005     469.62  <-- SCF
      9  -5.19840800E+003 -2.74532231E+000   2.01698783E-005     474.56  <-- SCF
     10  -5.19840852E+003 -2.75218329E+000   1.51076967E-005     479.48  <-- SCF
     11  -5.19840863E+003 -2.75849724E+000   3.25429143E-006     484.42  <-- SCF
     12  -5.19840872E+003 -2.76534557E+000   2.62971193E-006     489.36  <-- SCF
     13  -5.19840903E+003 -2.76948262E+000   9.15315629E-006     494.28  <-- SCF
     14  -5.19840935E+003 -2.77205804E+000   9.46489262E-006     499.18  <-- SCF
     15  -5.19840965E+003 -2.77288638E+000   8.78588767E-006     503.97  <-- SCF
     16  -5.19840975E+003 -2.77308215E+000   3.09885505E-006     508.73  <-- SCF
     17  -5.19840985E+003 -2.77308350E+000   2.71229320E-006     513.42  <-- SCF
     18  -5.19840989E+003 -2.77320067E+000   1.29564788E-006     518.21  <-- SCF
     19  -5.19840991E+003 -2.77335651E+000   6.74897477E-007     522.98  <-- SCF
     20  -5.19840992E+003 -2.77350757E+000   9.59134710E-008     527.81  <-- SCF
------------------------------------------------------------------------ <-- SCF
 
Final energy, E             =  -5198.402341101     eV
Final free energy (E-TS)    =  -5198.409917470     eV
(energies not corrected for finite basis set)
 
NB est. 0K energy (E-0.5TS)      =  -5198.406129285     eV
 
(SEDC) Total Energy Correction : -0.279529E+01 eV

Dispersion corrected final energy*, Ecor          =  -5201.197634915     eV
Dispersion corrected final free energy* (Ecor-TS) =  -5201.205211285     eV
NB dispersion corrected est. 0K energy* (Ecor-0.5TS) =  -5201.201423100     eV
 +++++++++++++++++++++++++++++++++++++++++++++++++++++++
 Path coordinate:                         0.43062
 Energy:                              -5201.20521 eV                            
 +++++++++++++++++++++++++++++++++++++++++++++++++++++++
 
------------------------------------------------------------------------ <-- SCF
SCF loop      Energy           Fermi           Energy gain       Timer   <-- SCF
                               energy          per atom          (sec)   <-- SCF
------------------------------------------------------------------------ <-- SCF
Initial  -5.18636559E+003  0.00000000E+000                       532.75  <-- SCF
      1  -5.19838447E+003 -2.61397575E+000   3.53496578E-001     537.53  <-- SCF
      2  -5.20013565E+003 -2.67847218E+000   5.15052492E-002     543.36  <-- SCF
      3  -5.20003601E+003 -2.64201048E+000  -2.93049349E-003     549.51  <-- SCF
      4  -5.20003082E+003 -2.62206070E+000  -1.52742988E-004     556.12  <-- SCF
      5  -5.20002605E+003 -2.60953924E+000  -1.40352039E-004     562.55  <-- SCF
      6  -5.20002224E+003 -2.59214003E+000  -1.11855409E-004     568.46  <-- SCF
      7  -5.20001974E+003 -2.57643801E+000  -7.36995365E-005     573.93  <-- SCF
      8  -5.20001807E+003 -2.56163949E+000  -4.89602386E-005     579.03  <-- SCF
      9  -5.20001768E+003 -2.54791740E+000  -1.16177275E-005     584.21  <-- SCF
     10  -5.20001787E+003 -2.53772920E+000   5.74696186E-006     589.24  <-- SCF
     11  -5.20001818E+003 -2.52864049E+000   9.00005028E-006     594.41  <-- SCF
     12  -5.20001877E+003 -2.51937341E+000   1.74386447E-005     599.65  <-- SCF
     13  -5.20002002E+003 -2.51448632E+000   3.66581945E-005     604.66  <-- SCF
     14  -5.20002109E+003 -2.51179809E+000   3.16527095E-005     609.60  <-- SCF
     15  -5.20002177E+003 -2.51092297E+000   1.99572956E-005     614.50  <-- SCF
     16  -5.20002206E+003 -2.51054002E+000   8.54964425E-006     619.29  <-- SCF
     17  -5.20002218E+003 -2.51039127E+000   3.40810089E-006     623.96  <-- SCF
     18  -5.20002224E+003 -2.51022466E+000   1.82862554E-006     628.75  <-- SCF
     19  -5.20002228E+003 -2.51000599E+000   1.05246334E-006     633.51  <-- SCF
     20  -5.20002229E+003 -2.50964019E+000   5.07130370E-007     638.23  <-- SCF
     21  -5.20002231E+003 -2.50917508E+000   3.65664282E-007     642.95  <-- SCF
------------------------------------------------------------------------ <-- SCF
 
Final energy, E             =  -5200.017654034     eV
Final free energy (E-TS)    =  -5200.022307152     eV
(energies not corrected for finite basis set)
 
NB est. 0K energy (E-0.5TS)      =  -5200.019980593     eV
 
(SEDC) Total Energy Correction : -0.277128E+01 eV

Dispersion corrected final energy*, Ecor          =  -5202.788933440     eV
Dispersion corrected final free energy* (Ecor-TS) =  -5202.793586557     eV
NB dispersion corrected est. 0K energy* (Ecor-0.5TS) =  -5202.791259998     eV
 +++++++++++++++++++++++++++++++++++++++++++++++++++++++
 Path coordinate:                         0.62944
 Energy:                              -5202.79359 eV                            
 +++++++++++++++++++++++++++++++++++++++++++++++++++++++
 
 +++++++++++++++++++++++++++++++++++++++++++++++++++++++
 LST maximum bracketing from reactant successful
 Cumulative number of energy/gradient calls :     5
 +++++++++++++++++++++++++++++++++++++++++++++++++++++++
 
 +++++++++++++++++++++++++++++++++++++++++++++++++++++++
 Commencing maximum search
 +++++++++++++++++++++++++++++++++++++++++++++++++++++++
 
------------------------------------------------------------------------ <-- SCF
SCF loop      Energy           Fermi           Energy gain       Timer   <-- SCF
                               energy          per atom          (sec)   <-- SCF
------------------------------------------------------------------------ <-- SCF
Initial  -5.17111211E+003  0.00000000E+000                       647.73  <-- SCF
      1  -5.19271851E+003 -2.26813182E+000   6.35482416E-001     652.37  <-- SCF
      2  -5.19846027E+003 -2.84558884E+000   1.68875274E-001     658.03  <-- SCF
      3  -5.19813508E+003 -2.69097148E+000  -9.56455837E-003     664.09  <-- SCF
      4  -5.19814068E+003 -2.71238722E+000   1.64750147E-004     670.06  <-- SCF
      5  -5.19814060E+003 -2.71897859E+000  -2.44876817E-006     676.33  <-- SCF
      6  -5.19814077E+003 -2.72673609E+000   5.09785246E-006     682.52  <-- SCF
      7  -5.19814304E+003 -2.73332833E+000   6.68626523E-005     688.20  <-- SCF
      8  -5.19814470E+003 -2.74327915E+000   4.88252821E-005     693.51  <-- SCF
      9  -5.19814601E+003 -2.76041397E+000   3.84151111E-005     698.77  <-- SCF
     10  -5.19814620E+003 -2.77237572E+000   5.75118343E-006     704.05  <-- SCF
     11  -5.19814592E+003 -2.78582227E+000  -8.34364249E-006     709.18  <-- SCF
     12  -5.19814592E+003 -2.79480935E+000  -1.39145678E-007     714.13  <-- SCF
     13  -5.19814609E+003 -2.80124592E+000   5.12690826E-006     719.06  <-- SCF
     14  -5.19814671E+003 -2.80445557E+000   1.80783598E-005     723.93  <-- SCF
     15  -5.19814714E+003 -2.80588325E+000   1.26975945E-005     728.84  <-- SCF
     16  -5.19814754E+003 -2.80642690E+000   1.19930510E-005     733.67  <-- SCF
     17  -5.19814770E+003 -2.80662191E+000   4.56120216E-006     738.43  <-- SCF
     18  -5.19814780E+003 -2.80694599E+000   3.09064126E-006     743.24  <-- SCF
     19  -5.19814785E+003 -2.80724042E+000   1.24263142E-006     748.07  <-- SCF
     20  -5.19814785E+003 -2.80761058E+000   2.25393315E-007     752.79  <-- SCF
     21  -5.19814785E+003 -2.80821894E+000  -1.57444547E-007     757.53  <-- SCF
------------------------------------------------------------------------ <-- SCF
 
Final energy, E             =  -5198.133983741     eV
Final free energy (E-TS)    =  -5198.147849385     eV
(energies not corrected for finite basis set)
 
NB est. 0K energy (E-0.5TS)      =  -5198.140916563     eV
 
(SEDC) Total Energy Correction : -0.280320E+01 eV

Dispersion corrected final energy*, Ecor          =  -5200.937185279     eV
Dispersion corrected final free energy* (Ecor-TS) =  -5200.951050923     eV
NB dispersion corrected est. 0K energy* (Ecor-0.5TS) =  -5200.944118101     eV
 +++++++++++++++++++++++++++++++++++++++++++++++++++++++
 Path coordinate:                         0.35193
 Energy:                              -5200.95105 eV                            
 +++++++++++++++++++++++++++++++++++++++++++++++++++++++
 
------------------------------------------------------------------------ <-- SCF
SCF loop      Energy           Fermi           Energy gain       Timer   <-- SCF
                               energy          per atom          (sec)   <-- SCF
------------------------------------------------------------------------ <-- SCF
Initial  -5.19810989E+003  0.00000000E+000                       762.25  <-- SCF
      1  -5.19813889E+003 -2.80891618E+000   8.52924753E-004     767.15  <-- SCF
      2  -5.19813931E+003 -2.80893112E+000   1.23743440E-005     773.79  <-- SCF
      3  -5.19813894E+003 -2.80631313E+000  -1.08468905E-005     779.39  <-- SCF
      4  -5.19813894E+003 -2.80677232E+000   1.05575188E-007     784.20  <-- SCF
      5  -5.19813894E+003 -2.80675755E+000  -1.44487602E-007     788.99  <-- SCF
------------------------------------------------------------------------ <-- SCF
 
Final energy, E             =  -5198.122888721     eV
Final free energy (E-TS)    =  -5198.138937461     eV
(energies not corrected for finite basis set)
 
NB est. 0K energy (E-0.5TS)      =  -5198.130913091     eV
 
(SEDC) Total Energy Correction : -0.280430E+01 eV

Dispersion corrected final energy*, Ecor          =  -5200.927185292     eV
Dispersion corrected final free energy* (Ecor-TS) =  -5200.943234032     eV
NB dispersion corrected est. 0K energy* (Ecor-0.5TS) =  -5200.935209662     eV
 +++++++++++++++++++++++++++++++++++++++++++++++++++++++
 Path coordinate:                         0.34096
 Energy:                              -5200.94323 eV                            
 +++++++++++++++++++++++++++++++++++++++++++++++++++++++
 
------------------------------------------------------------------------ <-- SCF
SCF loop      Energy           Fermi           Energy gain       Timer   <-- SCF
                               energy          per atom          (sec)   <-- SCF
------------------------------------------------------------------------ <-- SCF
Initial  -5.19811802E+003  0.00000000E+000                       793.74  <-- SCF
      1  -5.19813705E+003 -2.80574805E+000   5.59661591E-004     798.59  <-- SCF
      2  -5.19813723E+003 -2.80575505E+000   5.46898093E-006     804.89  <-- SCF
      3  -5.19813706E+003 -2.80413308E+000  -5.12773852E-006     810.43  <-- SCF
      4  -5.19813705E+003 -2.80440862E+000  -1.78546036E-007     815.19  <-- SCF
      5  -5.19813704E+003 -2.80434882E+000  -2.00105876E-007     819.98  <-- SCF
------------------------------------------------------------------------ <-- SCF
 
Final energy, E             =  -5198.119143280     eV
Final free energy (E-TS)    =  -5198.137044218     eV
(energies not corrected for finite basis set)
 
NB est. 0K energy (E-0.5TS)      =  -5198.128093749     eV
 
(SEDC) Total Energy Correction : -0.280515E+01 eV

Dispersion corrected final energy*, Ecor          =  -5200.924295106     eV
Dispersion corrected final free energy* (Ecor-TS) =  -5200.942196044     eV
NB dispersion corrected est. 0K energy* (Ecor-0.5TS) =  -5200.933245575     eV
 +++++++++++++++++++++++++++++++++++++++++++++++++++++++
 Path coordinate:                         0.33366
 Energy:                              -5200.94220 eV                            
 +++++++++++++++++++++++++++++++++++++++++++++++++++++++
 
------------------------------------------------------------------------ <-- SCF
SCF loop      Energy           Fermi           Energy gain       Timer   <-- SCF
                               energy          per atom          (sec)   <-- SCF
------------------------------------------------------------------------ <-- SCF
Initial  -5.19801913E+003  0.00000000E+000                       824.75  <-- SCF
      1  -5.19814640E+003 -2.80487930E+000   3.74341405E-003     829.41  <-- SCF
      2  -5.19814706E+003 -2.80489869E+000   1.93125945E-005     836.43  <-- SCF
      3  -5.19814668E+003 -2.80710529E+000  -1.11338475E-005     842.25  <-- SCF
      4  -5.19814672E+003 -2.80685293E+000   1.03267432E-006     847.02  <-- SCF
      5  -5.19814670E+003 -2.80694454E+000  -4.34921292E-007     851.70  <-- SCF
      6  -5.19814670E+003 -2.80695911E+000   5.90867183E-008     856.40  <-- SCF
------------------------------------------------------------------------ <-- SCF
 
Final energy, E             =  -5198.131690747     eV
Final free energy (E-TS)    =  -5198.146704197     eV
(energies not corrected for finite basis set)
 
NB est. 0K energy (E-0.5TS)      =  -5198.139197472     eV
 
(SEDC) Total Energy Correction : -0.280370E+01 eV

Dispersion corrected final energy*, Ecor          =  -5200.935395574     eV
Dispersion corrected final free energy* (Ecor-TS) =  -5200.950409024     eV
NB dispersion corrected est. 0K energy* (Ecor-0.5TS) =  -5200.942902299     eV
 +++++++++++++++++++++++++++++++++++++++++++++++++++++++
 Path coordinate:                         0.34547
 Energy:                              -5200.95041 eV                            
 +++++++++++++++++++++++++++++++++++++++++++++++++++++++
 
------------------------------------------------------------------------ <-- SCF
SCF loop      Energy           Fermi           Energy gain       Timer   <-- SCF
                               energy          per atom          (sec)   <-- SCF
------------------------------------------------------------------------ <-- SCF
Initial  -5.19812026E+003  0.00000000E+000                       861.11  <-- SCF
      1  -5.19813763E+003 -2.80747912E+000   5.10679417E-004     865.71  <-- SCF
      2  -5.19813802E+003 -2.80748947E+000   1.16942242E-005     872.73  <-- SCF
      3  -5.19813783E+003 -2.80589177E+000  -5.85057047E-006     878.31  <-- SCF
      4  -5.19813786E+003 -2.80617200E+000   9.24530283E-007     882.95  <-- SCF
      5  -5.19813784E+003 -2.80609737E+000  -4.78377261E-007     887.32  <-- SCF
------------------------------------------------------------------------ <-- SCF
 
Final energy, E             =  -5198.121138077     eV
Final free energy (E-TS)    =  -5198.137840654     eV
(energies not corrected for finite basis set)
 
NB est. 0K energy (E-0.5TS)      =  -5198.129489366     eV
 
(SEDC) Total Energy Correction : -0.280453E+01 eV

Dispersion corrected final energy*, Ecor          =  -5200.925672199     eV
Dispersion corrected final free energy* (Ecor-TS) =  -5200.942374775     eV
NB dispersion corrected est. 0K energy* (Ecor-0.5TS) =  -5200.934023487     eV
 +++++++++++++++++++++++++++++++++++++++++++++++++++++++
 Path coordinate:                         0.33817
 Energy:                              -5200.94237 eV                            
 +++++++++++++++++++++++++++++++++++++++++++++++++++++++
 
------------------------------------------------------------------------ <-- SCF
SCF loop      Energy           Fermi           Energy gain       Timer   <-- SCF
                               energy          per atom          (sec)   <-- SCF
------------------------------------------------------------------------ <-- SCF
Initial  -5.19810822E+003  0.00000000E+000                       892.04  <-- SCF
      1  -5.19813978E+003 -2.80653550E+000   9.28228239E-004     896.75  <-- SCF
      2  -5.19813984E+003 -2.80653776E+000   1.78643937E-006     902.20  <-- SCF
      3  -5.19813978E+003 -2.80747246E+000  -1.65535202E-006     906.97  <-- SCF
      4  -5.19813979E+003 -2.80732716E+000   1.46937192E-007     911.36  <-- SCF
      5  -5.19813979E+003 -2.80735974E+000   4.38445535E-008     915.56  <-- SCF
------------------------------------------------------------------------ <-- SCF
 
Final energy, E             =  -5198.124108344     eV
Final free energy (E-TS)    =  -5198.139788458     eV
(energies not corrected for finite basis set)
 
NB est. 0K energy (E-0.5TS)      =  -5198.131948401     eV
 
(SEDC) Total Energy Correction : -0.280410E+01 eV

Dispersion corrected final energy*, Ecor          =  -5200.928208320     eV
Dispersion corrected final free energy* (Ecor-TS) =  -5200.943888434     eV
NB dispersion corrected est. 0K energy* (Ecor-0.5TS) =  -5200.936048377     eV
 +++++++++++++++++++++++++++++++++++++++++++++++++++++++
 Path coordinate:                         0.34256
 Energy:                              -5200.94389 eV                            
 +++++++++++++++++++++++++++++++++++++++++++++++++++++++
 
------------------------------------------------------------------------ <-- SCF
SCF loop      Energy           Fermi           Energy gain       Timer   <-- SCF
                               energy          per atom          (sec)   <-- SCF
------------------------------------------------------------------------ <-- SCF
Initial  -5.19812831E+003  0.00000000E+000                       920.25  <-- SCF
      1  -5.19813847E+003 -2.80714733E+000   2.98703550E-004     924.92  <-- SCF
      2  -5.19813849E+003 -2.80714811E+000   5.78131589E-007     929.24  <-- SCF
      3  -5.19813847E+003 -2.80654936E+000  -6.16877383E-007     933.86  <-- SCF
      4  -5.19813847E+003 -2.80664302E+000   5.07397032E-008     937.94  <-- SCF
------------------------------------------------------------------------ <-- SCF
 
Final energy, E             =  -5198.122187155     eV
Final free energy (E-TS)    =  -5198.138470848     eV
(energies not corrected for finite basis set)
 
NB est. 0K energy (E-0.5TS)      =  -5198.130329001     eV
 
(SEDC) Total Energy Correction : -0.280433E+01 eV

Dispersion corrected final energy*, Ecor          =  -5200.926515855     eV
Dispersion corrected final free energy* (Ecor-TS) =  -5200.942799549     eV
NB dispersion corrected est. 0K energy* (Ecor-0.5TS) =  -5200.934657702     eV
 +++++++++++++++++++++++++++++++++++++++++++++++++++++++
 Path coordinate:                         0.33990
 Energy:                              -5200.94280 eV                            
 +++++++++++++++++++++++++++++++++++++++++++++++++++++++
 
------------------------------------------------------------------------ <-- SCF
SCF loop      Energy           Fermi           Energy gain       Timer   <-- SCF
                               energy          per atom          (sec)   <-- SCF
------------------------------------------------------------------------ <-- SCF
Initial  -5.19812070E+003  0.00000000E+000                       942.64  <-- SCF
      1  -5.19813925E+003 -2.80677790E+000   5.45486709E-004     947.22  <-- SCF
      2  -5.19813926E+003 -2.80677814E+000   2.07764707E-007     950.72  <-- SCF
      3  -5.19813925E+003 -2.80716801E+000  -2.03912885E-007     954.75  <-- SCF
      4  -5.19813925E+003 -2.80711050E+000   4.05063116E-008     958.55  <-- SCF
------------------------------------------------------------------------ <-- SCF
 
Final energy, E             =  -5198.123350973     eV
Final free energy (E-TS)    =  -5198.139252344     eV
(energies not corrected for finite basis set)
 
NB est. 0K energy (E-0.5TS)      =  -5198.131301658     eV
 
(SEDC) Total Energy Correction : -0.280417E+01 eV

Dispersion corrected final energy*, Ecor          =  -5200.927517047     eV
Dispersion corrected final free energy* (Ecor-TS) =  -5200.943418418     eV
NB dispersion corrected est. 0K energy* (Ecor-0.5TS) =  -5200.935467733     eV
 +++++++++++++++++++++++++++++++++++++++++++++++++++++++
 Path coordinate:                         0.34157
 Energy:                              -5200.94342 eV                            
 +++++++++++++++++++++++++++++++++++++++++++++++++++++++
 
------------------------------------------------------------------------ <-- SCF
SCF loop      Energy           Fermi           Energy gain       Timer   <-- SCF
                               energy          per atom          (sec)   <-- SCF
------------------------------------------------------------------------ <-- SCF
Initial  -5.19812368E+003  0.00000000E+000                       963.30  <-- SCF
      1  -5.19813895E+003 -2.80706542E+000   4.48975807E-004     967.75  <-- SCF
      2  -5.19813895E+003 -2.80706545E+000   3.43309417E-008     971.07  <-- SCF
      3  -5.19813895E+003 -2.80693242E+000  -8.80045154E-009     974.98  <-- SCF
      4  -5.19813895E+003 -2.80695732E+000   1.68129737E-008     978.83  <-- SCF
------------------------------------------------------------------------ <-- SCF
 
Final energy, E             =  -5198.122908623     eV
Final free energy (E-TS)    =  -5198.138949008     eV
(energies not corrected for finite basis set)
 
NB est. 0K energy (E-0.5TS)      =  -5198.130928816     eV
 
(SEDC) Total Energy Correction : -0.280420E+01 eV

Dispersion corrected final energy*, Ecor          =  -5200.927113441     eV
Dispersion corrected final free energy* (Ecor-TS) =  -5200.943153826     eV
NB dispersion corrected est. 0K energy* (Ecor-0.5TS) =  -5200.935133634     eV
 +++++++++++++++++++++++++++++++++++++++++++++++++++++++
 Path coordinate:                         0.34096
 Energy:                              -5200.94315 eV                            
 +++++++++++++++++++++++++++++++++++++++++++++++++++++++
 
 +++++++++++++++++++++++++++++++++++++++++++++++++++++++
 LST Maximum Found!
 Energy of reactant:                  -5203.44692 eV                            
 Energy of product:                   -5206.38803 eV                            
 Energy of LST maximum:               -5200.94315 eV                            
 Location of LST maximum:                 0.34096
 Barrier from reactant:                   2.50376 eV                            
 Barrier from product:                    5.44487 eV                            
 Energy of reaction:                     -2.94111 eV                            
 +++++++++++++++++++++++++++++++++++++++++++++++++++++++
 
            ++++++++++++++++++++++++++++++++++++++++++++++++++++++++++++++++++++
                             Coordinates: Fractional components
            ++++++++++++++++++++++++++++++++++++++++++++++++++++++++++++++++++++
            +  Element    Atom                                                 +
            +            Number           x          y          z              +
            ++++++++++++++++++++++++++++++++++++++++++++++++++++++++++++++++++++
            +H             1          0.444853   0.351306   0.614709           +
            +H             2          0.657657   0.566341   0.612436           +
            +C             1          0.165944   0.083408   0.497840           +
            +C             2         -0.000383   0.000373   0.494334           +
            +C             3          0.165685   0.332484   0.495714           +
            +C             4         -0.000699   0.249832   0.492316           +
            +C             5          0.166880   0.583223   0.494494           +
            +C             6         -0.000113   0.499836   0.494043           +
            +C             7          0.166645   0.833621   0.497314           +
            +C             8          0.000204   0.750504   0.498582           +
            +C             9          0.417353   0.083890   0.497425           +
            +C            10          0.249743  -0.000169   0.498610           +
            +C            11          0.414613   0.332026   0.518036           +
            +C            12          0.246007   0.248090   0.502668           +
            +C            13          0.417637   0.582747   0.496374           +
            +C            14          0.249263   0.499632   0.495358           +
            +C            15          0.417315   0.833490   0.494494           +
            +C            16          0.250283   0.750240   0.495448           +
            +C            17          0.666899   0.083708   0.492361           +
            +C            18          0.500560   0.000204   0.494015           +
            +C            19          0.666493   0.333818   0.495789           +
            +C            20          0.500771   0.248832   0.501090           +
            +C            21          0.668304   0.585721   0.517583           +
            +C            22          0.498656   0.501528   0.504136           +
            +C            23          0.667877   0.834549   0.495546           +
            +C            24          0.500777   0.751050   0.495312           +
            +C            25          0.916705   0.083622   0.492482           +
            +C            26          0.750463   0.000703   0.492264           +
            +C            27          0.916621   0.333626   0.492404           +
            +C            28          0.750212   0.250182   0.492775           +
            +C            29          0.916334   0.583051   0.497414           +
            +C            30          0.751483   0.499512   0.500968           +
            +C            31          0.916734   0.834219   0.497698           +
            +C            32          0.752139   0.754140   0.502216           +
            ++++++++++++++++++++++++++++++++++++++++++++++++++++++++++++++++++++
                           Forces: Cartesian components: eV/A                          
            ++++++++++++++++++++++++++++++++++++++++++++++++++++++++++++++++++++
            +  Element    Atom                                                 +
            +            Number           x          y          z              +
            ++++++++++++++++++++++++++++++++++++++++++++++++++++++++++++++++++++
            +H             1          0.633509   0.842900  -0.658656           +
            +H             2         -0.433430  -1.060926  -0.734190           +
            +C             1         -0.014802  -0.371602   0.099596           +
            +C             2          0.139349  -0.073005   0.002545           +
            +C             3         -0.207227   0.209759   0.245146           +
            +C             4          0.059787   0.006236   0.034769           +
            +C             5         -0.067902   0.079185  -0.060421           +
            +C             6         -0.060309   0.023925  -0.013903           +
            +C             7          0.000040   0.003649  -0.011058           +
            +C             8         -0.222568  -0.017549  -0.022185           +
            +C             9          0.027626  -0.285531   0.008119           +
            +C            10         -0.097883   0.193694  -0.018398           +
            +C            11         -0.009643   0.608027  -2.112212           +
            +C            12          1.085202   0.665760   0.523490           +
            +C            13         -0.527970   0.282126   0.325300           +
            +C            14          0.341825  -0.001490  -0.076709           +
            +C            15         -0.114294   0.007326  -0.064203           +
            +C            16          0.021094  -0.031366  -0.024746           +
            +C            17         -0.000278  -0.022881  -0.049339           +
            +C            18         -0.042331   0.032917  -0.017933           +
            +C            19          0.347427  -0.166847   0.464245           +
[...]
      C    18      Px                   0.987
      C    18      Py                   0.989
      C    18      Pz                   0.986
      C    19      S                    1.021
      C    19      Px                   0.988
      C    19      Py                   0.984
      C    19      Pz                   1.007
      C    20      S                    1.043
      C    20      Px                   0.986
      C    20      Py                   0.998
      C    20      Pz                   0.923
      C    21      S                    1.123
      C    21      Px                   0.981
      C    21      Py                   0.992
      C    21      Pz                   1.071
      C    22      S                    1.029
      C    22      Px                   0.963
      C    22      Py                   0.939
      C    22      Pz                   1.054
      C    23      S                    1.027
      C    23      Px                   0.989
      C    23      Py                   0.985
      C    23      Pz                   0.999
      C    24      S                    1.026
      C    24      Px                   0.983
      C    24      Py                   0.982
      C    24      Pz                   1.017
      C    25      S                    1.025
      C    25      Px                   0.988
      C    25      Py                   0.987
      C    25      Pz                   0.998
      C    26      S                    1.031
      C    26      Px                   0.987
      C    26      Py                   0.989
      C    26      Pz                   0.986
      C    27      S                    1.025
      C    27      Px                   0.987
      C    27      Py                   0.986
      C    27      Pz                   1.003
      C    28      S                    1.025
      C    28      Px                   0.984
      C    28      Py                   0.988
      C    28      Pz                   1.001
      C    29      S                    1.024
      C    29      Px                   0.986
      C    29      Py                   0.986
      C    29      Pz                   1.011
      C    30      S                    1.042
      C    30      Px                   0.986
      C    30      Py                   0.994
      C    30      Pz                   0.922
      C    31      S                    1.028
      C    31      Px                   0.988
      C    31      Py                   0.990
      C    31      Pz                   0.993
      C    32      S                    1.038
      C    32      Px                   0.987
      C    32      Py                   0.975
      C    32      Pz                   0.988
  -------------------------------------------
                           Total:     129.996
  -------------------------------------------
 
     Atomic Populations (Mulliken)
     -----------------------------
Species          Ion     s       p       d       f      Total   Charge (e)
==========================================================================
  H               1     0.973   0.000   0.000   0.000   0.973     0.027
  H               2     0.895   0.000   0.000   0.000   0.895     0.105
  C               1     1.029   2.969   0.000   0.000   3.998     0.002
  C               2     1.025   2.978   0.000   0.000   4.003    -0.003
  C               3     1.027   2.971   0.000   0.000   3.997     0.003
  C               4     1.030   2.962   0.000   0.000   3.993     0.007
  C               5     1.026   2.974   0.000   0.000   4.000    -0.000
  C               6     1.030   2.961   0.000   0.000   3.991     0.009
  C               7     1.027   2.976   0.000   0.000   4.003    -0.003
  C               8     1.031   2.967   0.000   0.000   3.999     0.001
  C               9     1.025   2.981   0.000   0.000   4.006    -0.006
  C              10     1.032   2.964   0.000   0.000   3.997     0.003
  C              11     1.097   3.018   0.000   0.000   4.115    -0.115
  C              12     1.034   2.953   0.000   0.000   3.987     0.013
  C              13     1.023   2.977   0.000   0.000   4.000     0.000
  C              14     1.026   2.982   0.000   0.000   4.008    -0.008
  C              15     1.026   2.976   0.000   0.000   4.001    -0.001
  C              16     1.031   2.967   0.000   0.000   3.998     0.002
  C              17     1.026   2.975   0.000   0.000   4.001    -0.001
  C              18     1.030   2.961   0.000   0.000   3.991     0.009
  C              19     1.021   2.979   0.000   0.000   4.001    -0.001
  C              20     1.043   2.907   0.000   0.000   3.950     0.050
  C              21     1.123   3.044   0.000   0.000   4.167    -0.167
  C              22     1.029   2.956   0.000   0.000   3.985     0.015
  C              23     1.027   2.973   0.000   0.000   4.000     0.000
  C              24     1.026   2.983   0.000   0.000   4.009    -0.009
  C              25     1.025   2.973   0.000   0.000   3.999     0.001
  C              26     1.031   2.962   0.000   0.000   3.993     0.007
  C              27     1.025   2.976   0.000   0.000   4.000    -0.000
  C              28     1.025   2.973   0.000   0.000   3.998     0.002
  C              29     1.024   2.983   0.000   0.000   4.007    -0.007
  C              30     1.042   2.902   0.000   0.000   3.944     0.056
  C              31     1.028   2.971   0.000   0.000   3.999     0.001
  C              32     1.038   2.950   0.000   0.000   3.988     0.012
==========================================================================
 
                 Bond                   Population      Length (A)
======================================================================
               H 2 -- C 21                   0.47        1.33849
              C 13 -- C 22                   1.22        1.38393
              C 29 -- C 30                   1.13        1.41191
              C 15 -- C 24                   1.11        1.41516
              C 9  -- C 20                   1.12        1.41598
              C 5  -- C 14                   1.10        1.41635
              C 19 -- C 30                   1.10        1.42008
              C 23 -- C 32                   1.10        1.42053
              C 3  -- C 12                   1.10        1.42080
              C 2  -- C 25                   1.08        1.42110
              C 27 -- C 28                   1.08        1.42209
              C 31 -- C 32                   1.09        1.42216
              C 17 -- C 28                   1.08        1.42247
              C 6  -- C 27                   1.09        1.42337
              C 17 -- C 18                   1.08        1.42432
              C 1  -- C 12                   1.08        1.42432
              C 4  -- C 25                   1.07        1.42487
              C 7  -- C 10                   1.07        1.42499
              C 19 -- C 20                   1.09        1.42559
              C 7  -- C 8                    1.08        1.42561
              C 25 -- C 26                   1.07        1.42596
              C 4  -- C 27                   1.07        1.42608
              C 23 -- C 26                   1.06        1.42615
              C 8  -- C 31                   1.06        1.42622
              C 1  -- C 10                   1.07        1.42664
              C 15 -- C 18                   1.05        1.42673
              C 3  -- C 4                    1.06        1.42755
              C 5  -- C 6                    1.05        1.42806
              C 17 -- C 26                   1.06        1.42821
              C 6  -- C 29                   1.06        1.42827
              C 19 -- C 28                   1.06        1.42837
              C 2  -- C 31                   1.06        1.42843
              C 3  -- C 14                   1.07        1.42884
              C 7  -- C 16                   1.06        1.42910
              C 1  -- C 2                    1.07        1.42942
              C 23 -- C 24                   1.06        1.42985
              C 9  -- C 18                   1.06        1.42993
              C 5  -- C 16                   1.06        1.43026
              C 15 -- C 16                   1.06        1.43109
              C 8  -- C 29                   1.04        1.43578
              C 9  -- C 10                   1.04        1.43668
              C 13 -- C 14                   1.02        1.44007
              C 13 -- C 24                   1.01        1.44141
              C 11 -- C 22                   1.03        1.45363
              C 11 -- C 12                   0.98        1.46280
              C 11 -- C 20                   0.95        1.47065
              C 21 -- C 22                   0.96        1.47407
              C 21 -- C 30                   0.93        1.47930
              C 21 -- C 32                   0.94        1.47932
               H 1 -- C 11                   0.31        1.50342
               H 1 -- H 2                    0.38        1.56225
               H 2 -- C 22                  -0.27        2.03452
               H 2 -- C 30                  -0.17        2.05859
               H 1 -- C 20                  -0.12        2.09483
               H 1 -- C 22                  -0.27        2.11175
               H 1 -- C 21                  -0.14        2.40090
               H 2 -- C 11                  -0.13        2.41393
              C 11 -- C 21                  -0.22        2.42285
               H 2 -- C 32                  -0.09        2.42351
              C 14 -- C 22                  -0.19        2.45105
              C 6  -- C 30                  -0.17        2.45254
              C 22 -- C 24                  -0.20        2.45506
              C 18 -- C 24                  -0.18        2.45668
              C 6  -- C 14                  -0.18        2.45884
              C 23 -- C 31                  -0.18        2.45976
              C 4  -- C 28                  -0.18        2.46062
              C 18 -- C 20                  -0.17        2.46082
              C 19 -- C 29                  -0.18        2.46118
              C 19 -- C 27                  -0.18        2.46265
              C 2  -- C 26                  -0.18        2.46335
              C 6  -- C 28                  -0.18        2.46456
              C 26 -- C 28                  -0.18        2.46483
              C 9  -- C 19                  -0.18        2.46491
              C 18 -- C 28                  -0.18        2.46497
              C 24 -- C 26                  -0.18        2.46510
              C 4  -- C 12                  -0.17        2.46522
              C 20 -- C 30                  -0.16        2.46523
              C 1  -- C 3                   -0.18        2.46529
              C 26 -- C 32                  -0.17        2.46545
              C 1  -- C 25                  -0.18        2.46595
              C 28 -- C 30                  -0.18        2.46621
              C 2  -- C 8                   -0.18        2.46623
              C 17 -- C 19                  -0.18        2.46653
              C 11 -- C 13                  -0.16        2.46654
              C 2  -- C 4                   -0.18        2.46684
              C 25 -- C 31                  -0.18        2.46717
              C 3  -- C 27                  -0.18        2.46722
              C 15 -- C 17                  -0.18        2.46795
              C 1  -- C 7                   -0.18        2.46796
              C 4  -- C 14                  -0.18        2.46833
              C 5  -- C 27                  -0.18        2.46862
              C 4  -- C 26                  -0.17        2.46864
              C 14 -- C 16                  -0.18        2.46872
              C 2  -- C 32                  -0.18        2.46877
              C 16 -- C 24                  -0.18        2.46897
              C 2  -- C 10                  -0.18        2.46922
              C 17 -- C 23                  -0.18        2.46947
              C 10 -- C 16                  -0.18        2.46961
              C 3  -- C 25                  -0.18        2.46969
              C 7  -- C 31                  -0.18        2.47021
              C 17 -- C 27                  -0.17        2.47046
              C 2  -- C 12                  -0.18        2.47047
              C 17 -- C 25                  -0.18        2.47050
              C 23 -- C 25                  -0.18        2.47053
              C 8  -- C 10                  -0.17        2.47065
              C 20 -- C 28                  -0.18        2.47068
              C 5  -- C 29                  -0.18        2.47101
              C 4  -- C 6                   -0.17        2.47114
              C 8  -- C 16                  -0.18        2.47115
              C 25 -- C 27                  -0.17        2.47133
              C 3  -- C 13                  -0.18        2.47149
              C 3  -- C 5                   -0.17        2.47176
              C 13 -- C 23                  -0.18        2.47188
              C 18 -- C 26                  -0.17        2.47241
              C 27 -- C 29                  -0.17        2.47248
              C 8  -- C 32                  -0.18        2.47261
              C 9  -- C 15                  -0.18        2.47270
              C 8  -- C 30                  -0.17        2.47344
              C 15 -- C 23                  -0.17        2.47365
              C 9  -- C 17                  -0.18        2.47379
              C 5  -- C 15                  -0.18        2.47393
              C 12 -- C 22                  -0.14        2.47402
              C 10 -- C 12                  -0.17        2.47411
              C 12 -- C 14                  -0.18        2.47470
              C 16 -- C 18                  -0.17        2.47475
              C 6  -- C 16                  -0.17        2.47588
              C 24 -- C 32                  -0.18        2.47653
              C 10 -- C 20                  -0.17        2.47698
              C 1  -- C 31                  -0.17        2.47744
              C 5  -- C 7                   -0.17        2.47762
              C 7  -- C 29                  -0.18        2.47772
              C 29 -- C 31                  -0.17        2.47811
              C 13 -- C 15                  -0.17        2.47821
              C 5  -- C 13                  -0.17        2.47861
              C 7  -- C 15                  -0.17        2.47913
              C 1  -- C 9                   -0.17        2.47954
              C 7  -- C 9                   -0.18        2.47977
              C 10 -- C 18                  -0.18        2.47980
              C 6  -- C 8                   -0.18        2.48021
              C 13 -- C 21                  -0.16        2.48067
              C 22 -- C 32                  -0.14        2.48122
              C 14 -- C 24                  -0.16        2.48166
              C 3  -- C 11                  -0.17        2.49265
              C 19 -- C 21                  -0.17        2.49440
              C 11 -- C 19                  -0.17        2.50079
              C 9  -- C 11                  -0.17        2.50335
              C 1  -- C 11                  -0.17        2.50351
              C 12 -- C 20                  -0.18        2.50462
              C 30 -- C 32                  -0.17        2.50597
              C 21 -- C 23                  -0.17        2.51001
              C 21 -- C 29                  -0.17        2.51069
              C 21 -- C 31                  -0.16        2.51635
              C 20 -- C 22                  -0.15        2.52333
               H 1 -- C 12                  -0.08        2.52581
              C 22 -- C 30                  -0.14        2.53211
               H 2 -- C 19                  -0.05        2.68116
               H 1 -- C 19                  -0.05        2.70278
              C 3  -- C 22                  -0.10        2.83344
              C 22 -- C 23                  -0.10        2.83741
              C 27 -- C 30                  -0.11        2.83915
              C 17 -- C 24                  -0.10        2.83919
              C 6  -- C 19                  -0.11        2.83924
              C 14 -- C 27                  -0.10        2.84069
               H 2 -- C 20                  -0.05        2.84266
              C 26 -- C 31                  -0.10        2.84336
              C 25 -- C 28                  -0.10        2.84359
              C 2  -- C 7                   -0.10        2.84377
              C 18 -- C 19                  -0.10        2.84476
              C 12 -- C 25                  -0.10        2.84674
              C 2  -- C 23                  -0.10        2.84716
              C 1  -- C 4                   -0.10        2.84734
              C 17 -- C 20                  -0.11        2.84739
              C 20 -- C 21                  -0.08        2.84793
              C 4  -- C 17                  -0.10        2.84995
              C 12 -- C 13                  -0.09        2.85029
              C 25 -- C 32                  -0.10        2.85057
              C 3  -- C 6                   -0.10        2.85077
              C 13 -- C 32                  -0.09        2.85201
              C 2  -- C 3                   -0.10        2.85225
              C 18 -- C 23                  -0.10        2.85315
              C 9  -- C 28                  -0.10        2.85316
              C 14 -- C 15                  -0.10        2.85333
              C 1  -- C 8                   -0.10        2.85406
              C 28 -- C 29                  -0.10        2.85413
              C 5  -- C 24                  -0.10        2.85414
              C 15 -- C 26                  -0.10        2.85418
              C 26 -- C 27                  -0.10        2.85458
              C 16 -- C 29                  -0.10        2.85559
              C 4  -- C 5                   -0.10        2.85572
              C 9  -- C 16                  -0.10        2.85681
              C 10 -- C 15                  -0.10        2.85723
              C 5  -- C 8                   -0.10        2.85747
              C 10 -- C 31                  -0.10        2.85753
              C 11 -- C 30                  -0.07        2.85995
              C 6  -- C 7                   -0.10        2.86240
              C 7  -- C 18                  -0.09        2.86267
              C 29 -- C 32                  -0.09        2.86533
              C 9  -- C 12                  -0.09        2.86603
              C 13 -- C 16                  -0.10        2.86639
              C 30 -- C 31                  -0.09        2.86799
               H 1 -- C 30                  -0.06        2.86968
              C 1  -- C 20                  -0.09        2.87020
              C 11 -- C 14                  -0.10        2.87269
              C 10 -- C 11                  -0.09        2.88762
              C 21 -- C 24                  -0.09        2.88991
              C 8  -- C 21                  -0.09        2.89707
              C 19 -- C 22                  -0.07        2.91170
               H 2 -- C 13                  -0.04        2.91819
               H 1 -- C 13                  -0.04        2.99092
======================================================================
 

Writing analysis data to 4x4.castep_bin

Writing model to 4x4.check
 
 A BibTeX formatted list of references used in this run has been written to 
 4x4.bib
 
Initialisation time =      2.90 s
Calculation time    =   8484.66 s
Finalisation time   =      1.83 s
Total time          =   8489.39 s
Peak Memory Use     = 1023560 kB
  
Overall parallel efficiency rating: Mediocre (52%)                              
  
Data was distributed by:-
G-vector (16-way); efficiency rating: Mediocre (54%)                            
k-point (8-way); efficiency rating: Excellent (94%)                             
