 +-------------------------------------------------+
 |                                                 |
 |      CCC   AA    SSS  TTTTT  EEEEE  PPPP        |
 |     C     A  A  S       T    E      P   P       |
 |     C     AAAA   SS     T    EEE    PPPP        |
 |     C     A  A     S    T    E      P           |
 |      CCC  A  A  SSS     T    EEEEE  P           |
 |                                                 |
 +-------------------------------------------------+
 |                                                 |
 | Welcome to Academic Release CASTEP version 21.11|          
 | Ab Initio Total Energy Program                  |
 |                                                 |
 | Authors:                                        |
 | M. Segall, M. Probert, C. Pickard, P. Hasnip,   |
 | S. Clark, K. Refson, J. R. Yates, M. Payne      |
 |                                                 |
 | Contributors:                                   |
 | P. Lindan, P. Haynes, J. White, V. Milman,      |
 | N. Govind, M. Gibson, P. Tulip, V. Cocula,      |
 | B. Montanari, D. Quigley, M. Glover,            |
 | L. Bernasconi, A. Perlov, M. Plummer,           |
 | E. McNellis, J. Meyer, J. Gale, D. Jochym       |
 | J. Aarons, B. Walker, R. Gillen, D. Jones       |
 | T. Green, I. J. Bush, C. J. Armstrong,          |
 | E. J. Higgins, E. L. Brown, M. S. McFly,        |
 | J. Wilkins, B-C. Shih, P. J. P. Byrne,          |
 | R. J. Maurer, J. C. Womack, J. Dziedzic,        |
 | A. Bartok-Partay, L. LeBlanc                    |
 |                                                 |
 | Copyright (c) 2000 - 2021                       |
 |                                                 |
 |     Distributed under license from Cambridge    |
 |     Enterprise for academic use only.           |
 |                                                 |
 | Please cite                                     |
 |                                                 |
 |     "First principles methods using CASTEP"     |
 |                                                 |
 |         Zeitschrift fuer Kristallographie       |
 |           220(5-6) pp. 567-570 (2005)           |
 |                                                 |
 | S. J. Clark, M. D. Segall, C. J. Pickard,       |
 | P. J. Hasnip, M. J. Probert, K. Refson,         |
 | M. C. Payne                                     |
 |                                                 |
 |       in all publications arising from          |
 |              your use of CASTEP                 |
 |                                                 |
 +-------------------------------------------------+
 |                                                 |
 |              http://www.castep.org              |
 |                                                 |
 +-------------------------------------------------+
 
 
 
 Compiled for linux_x86_64_cray-XT on Tue, 01 Mar 2022 09:19:15 +0000
 from code version 7d4405a8a+  HEAD  Sat Nov 27 13:38:33 2021 +0000
 Compiler: Cray Fortran 12.0.3; Optimisation: fast
 MATHLIBS: LibSci (LAPACK version 3.6.1)
 FFT Lib : fftw3 version commercial-fftw-3.3.8-sse2-avx-avx2-avx2_128
 Fundamental constants values: CODATA 2014
 
 Run started: Fri, 28 Oct 2022 13:55:50 -0100
 
 Atomic calculation performed for H: 1s1
 
 Converged in 41 iterations to an ae energy of -12.488 eV
 
   ============================================================                
   | Pseudopotential Report - Date of generation 28-10-2022   |                
   ------------------------------------------------------------                
   | Element: H Ionic charge:  1.00 Level of theory: PBE      |                
   | Atomic Solver: Koelling-Harmon                           |                
   |                                                          |                
   |               Reference Electronic Structure             |                
   |         Orbital         Occupation         Energy        |                
   |            1s              1.000           -0.239        |                
   |                                                          |                
   |                 Pseudopotential Definition               |                
   |        Beta     l      e      Rc     scheme   norm       |                
   |          1      0   -0.239   0.803     qc      1         |                
   |         loc     1    0.000   0.803     pn      0         |                
   |                                                          |                
   | No charge augmentation                                   |                
   | No partial core correction                               |                
   ------------------------------------------------------------                
   | "1|0.8|14|16|19|10N(qc=8)"                               |                
   ------------------------------------------------------------                
   |      Author: Chris J. Pickard, Cambridge University      |                
   ============================================================                
 
 Atomic calculation performed for C: 1s2 2s2 2p2
 
 Converged in 54 iterations to an ae energy of -1027.632 eV
 
   ============================================================                
   | Pseudopotential Report - Date of generation 28-10-2022   |                
   ------------------------------------------------------------                
   | Element: C Ionic charge:  4.00 Level of theory: PBE      |                
   | Atomic Solver: Koelling-Harmon                           |                
   |                                                          |                
   |               Reference Electronic Structure             |                
   |         Orbital         Occupation         Energy        |                
   |            2s              2.000           -0.505        |                
   |            2p              2.000           -0.194        |                
   |                                                          |                
   |                 Pseudopotential Definition               |                
   |        Beta     l      e      Rc     scheme   norm       |                
   |          1      0   -0.505   1.201     qc      1         |                
   |         loc     1   -0.194   1.201     qc      1         |                
   |                                                          |                
   | No charge augmentation                                   |                
   | Partial core correction Rc = 0.839                       |                
   ------------------------------------------------------------                
   | "1|1.2|17|20|23|20N:21L(qc=8)"                           |                
   ------------------------------------------------------------                
   |      Author: Chris J. Pickard, Cambridge University      |                
   ============================================================                
 
 Pseudo atomic calculation performed for H 1s1
 
 Converged in 13 iterations to a total energy of -12.4790 eV
 
 Pseudo atomic calculation performed for C 2s2 2p2
 
 Converged in 18 iterations to a total energy of -152.4291 eV
 Calculation parallelised over 128 processes.
 Data is distributed by G-vector(128-way)

 ************************************ Title ************************************
 

 ***************************** General Parameters ******************************
  
 output verbosity                               : normal  (1)
 write checkpoint data to                       : 9x9.check
 type of calculation                            : transition state search
 stress calculation                             : off
 density difference calculation                 : off
 electron localisation func (ELF) calculation   : off
 Hirshfeld analysis                             : off
 polarisation (Berry phase) analysis            : off
 molecular orbital projected DOS                : off
 deltaSCF calculation                           : off
 unlimited duration calculation
 timing information                             : on
 memory usage estimate                          : on
 write extra output files                       : on
 write final potential to formatted file        : off
 write final density to formatted file          : off
 write structure in CELL formatted file         : on
 write BibTeX reference list                    : on
 write OTFG pseudopotential files               : on
 write electrostatic potential file             : on
 write bands file                               : on
 checkpoint writing                             : both castep_bin and check files
  
 output         length unit                     : A
 output           mass unit                     : amu
 output           time unit                     : ps
 output         charge unit                     : e
 output           spin unit                     : hbar/2
 output         energy unit                     : eV
 output          force unit                     : eV/A
 output       velocity unit                     : A/ps
 output       pressure unit                     : GPa
 output     inv_length unit                     : 1/A
 output      frequency unit                     : cm-1
 output force constant unit                     : eV/A**2
 output         volume unit                     : A**3
 output   IR intensity unit                     : (D/A)**2/amu
 output         dipole unit                     : D
 output         efield unit                     : eV/A/e
 output        entropy unit                     : J/mol/K
 output    efield chi2 unit                     : pm/V
  
 wavefunctions paging                           : none
 random number generator seed                   : randomised (135550377)
 data distribution                              : optimal for this architecture
 optimization strategy                          : maximize speed(+++)

 *********************** Exchange-Correlation Parameters ***********************
  
 using functional                               : Perdew Burke Ernzerhof
 relativistic treatment                         : Koelling-Harmon
 DFT+D: Semi-empirical dispersion correction    : on
 SEDC with                                      : MBD@rsSCS method

 ************************* Pseudopotential Parameters **************************
  
 pseudopotential representation                 : reciprocal space
 <beta|phi> representation                      : reciprocal space
 spin-orbit coupling                            : off

 **************************** Basis Set Parameters *****************************
  
 plane wave basis set cut-off                   :   800.0000   eV
 size of standard grid                          :     1.7500
 size of   fine   gmax                          :    25.3584   1/A
 finite basis set correction                    : none

 **************************** Electronic Parameters ****************************
  
 number of  electrons                           :  649.0    
 net charge of system                           :  0.000    
 net spin   of system                           :  1.000    
 number of  up  spins                           :  325.0    
 number of down spins                           :  324.0    
 treating system as spin-polarized
 number of bands                                :        488

 ********************* Electronic Minimization Parameters **********************
  
 Method: Treating system as metallic with density mixing treatment of electrons,
         and number of  SD  steps               :          1
         and number of  CG  steps               :          4
  
 total energy / atom convergence tol.           : 0.1000E-05   eV
 eigen-energy convergence tolerance             : 0.3340E-06   eV
 max force / atom convergence tol.              : ignored
 convergence tolerance window                   :          3   cycles
 max. number of SCF cycles                      :        100
 number of fixed-spin iterations                :         10
 smearing scheme                                : Gaussian
 smearing width                                 : 0.2000       eV
 Fermi energy convergence tolerance             : 0.2721E-13   eV
 periodic dipole correction                     : NONE

 ************************** Density Mixing Parameters **************************
  
 density-mixing scheme                          : Pulay
 max. length of mixing history                  :         20
 charge density mixing amplitude                : 0.8000    
   spin density mixing amplitude                :  2.000    
 cut-off energy for mixing                      :  800.0       eV

 *********************** Population Analysis Parameters ************************
  
 Population analysis with cutoff                :  3.000       A
 Population analysis output                     : summary and pdos components

 ********************* Transition State Search Parameters **********************
  
 search method                                  : LSTQST
 LSTQST protocol                                : COMPLETELSTQST   
 max. number of QST iterations                  :         60
 max. number of CG  iterations                  :         60
 max. ionic |force| tolerance                   : 0.2571       eV/A
 max. ionic |displacement| tolerance            : 0.1000E-02   A

 *******************************************************************************
  
 
                           -------------------------------
                                      Unit Cell
                           -------------------------------
        Real Lattice(A)                      Reciprocal Lattice(1/A)
    22.2300000     0.0000000     0.0000000        0.282644413   0.163184826   0.000000000
   -11.1150000    19.2517450     0.0000000        0.000000000   0.326369652   0.000000000
     0.0000000     0.0000000    20.0340000        0.000000000   0.000000000   0.313626101
 
                       Lattice parameters(A)       Cell Angles
                    a =     22.230000          alpha =   90.000000
                    b =     22.230000          beta  =   90.000000
                    c =     20.034000          gamma =  120.000000
 
                       Current cell volume =          8573.876681       A**3
                                   density =             0.227055   AMU/A**3
                                           =             0.377034     g/cm^3
 
                           -------------------------------
                                     Cell Contents
                           -------------------------------
                         Total number of ions in cell =  163
                      Total number of species in cell =    2
                        Max number of any one species =  162
 
            xxxxxxxxxxxxxxxxxxxxxxxxxxxxxxxxxxxxxxxxxxxxxxxxxxxxxxxxxxxx
            x                          Reactant                        x
            xxxxxxxxxxxxxxxxxxxxxxxxxxxxxxxxxxxxxxxxxxxxxxxxxxxxxxxxxxxx
            x  Element    Atom        Fractional coordinates of atoms  x
            x            Number           u          v          w      x
            x----------------------------------------------------------x
            x  H            1         0.444402   0.444407   0.584099   x 
            x  C            1         0.073899   0.036756   0.498460   x 
            x  C            2        -0.000001  -0.000075   0.498603   x 
            x  C            3         0.073913   0.147909   0.498951   x 
            x  C            4        -0.000127   0.110896   0.498954   x 
            x  C            5         0.073824   0.259061   0.499588   x 
            x  C            6         0.000036   0.222108   0.499305   x 
            x  C            7         0.073861   0.370302   0.498950   x 
            x  C            8        -0.000166   0.333190   0.498958   x 
            x  C            9         0.073735   0.481453   0.498469   x 
            x  C           10        -0.000168   0.444371   0.498619   x 
            x  C           11         0.073794   0.592625   0.498553   x 
            x  C           12        -0.000146   0.555543   0.498592   x 
            x  C           13         0.073872   0.703835   0.498765   x 
            x  C           14        -0.000072   0.666759   0.498662   x 
            x  C           15         0.073905   0.814973   0.498760   x 
            x  C           16        -0.000055   0.777902   0.498654   x 
            x  C           17         0.073863   0.925965   0.498539   x 
            x  C           18        -0.000112   0.888976   0.498571   x 
            x  C           19         0.184886   0.036554   0.498273   x 
            x  C           20         0.110867  -0.000273   0.498385   x 
            x  C           21         0.184859   0.147709   0.498721   x 
            x  C           22         0.110874   0.110837   0.498614   x 
            x  C           23         0.185009   0.258921   0.500549   x 
            x  C           24         0.111037   0.222048   0.499585   x 
            x  C           25         0.184988   0.370444   0.500540   x 
            x  C           26         0.111009   0.333306   0.499581   x 
            x  C           27         0.184802   0.481493   0.498704   x 
            x  C           28         0.110776   0.444360   0.498612   x 
            x  C           29         0.184864   0.592717   0.498262   x 
            x  C           30         0.110737   0.555534   0.498393   x 
            x  C           31         0.184921   0.703875   0.498557   x 
            x  C           32         0.110830   0.666742   0.498655   x 
            x  C           33         0.184980   0.815000   0.498761   x 
            x  C           34         0.110886   0.777921   0.498812   x 
            x  C           35         0.184945   0.925906   0.498562   x 
            x  C           36         0.110907   0.889015   0.498649   x 
            x  C           37         0.295933   0.036509   0.498278   x 
            x  C           38         0.221941  -0.000350   0.498326   x 
            x  C           39         0.295884   0.147443   0.498693   x 
            x  C           40         0.221912   0.110588   0.498408   x 
            x  C           41         0.296049   0.258668   0.501094   x 
            x  C           42         0.221897   0.221814   0.499828   x 
            x  C           43         0.295902   0.370152   0.505718   x 
            x  C           44         0.222587   0.333483   0.502276   x 
            x  C           45         0.296049   0.481779   0.501071   x 
            x  C           46         0.221873   0.444447   0.499809   x 
            x  C           47         0.295941   0.592856   0.498659   x 
            x  C           48         0.221925   0.555694   0.498384   x 
            x  C           49         0.296072   0.703935   0.498255   x 
            x  C           50         0.221976   0.666811   0.498313   x 
            x  C           51         0.296192   0.815082   0.498541   x 
            x  C           52         0.222044   0.777981   0.498650   x 
            x  C           53         0.296153   0.925979   0.498550   x 
            x  C           54         0.222073   0.889048   0.498655   x 
            x  C           55         0.407137   0.036583   0.498470   x 
            x  C           56         0.333103  -0.000343   0.498396   x 
            x  C           57         0.407147   0.147644   0.498715   x 
            x  C           58         0.332963   0.110547   0.498409   x 
            x  C           59         0.406965   0.258659   0.501078   x 
            x  C           60         0.333025   0.221706   0.500093   x 
            x  C           61         0.406384   0.368394   0.510207   x 
            x  C           62         0.333385   0.332795   0.505635   x 
            x  C           63         0.406396   0.482420   0.510206   x 
            x  C           64         0.333391   0.444998   0.505625   x 
            x  C           65         0.407024   0.592756   0.501065   x 
            x  C           66         0.333069   0.555732   0.500061   x 
            x  C           67         0.407305   0.704001   0.498698   x 
            x  C           68         0.333096   0.666867   0.498380   x 
            x  C           69         0.407373   0.815148   0.498460   x 
            x  C           70         0.333255   0.778081   0.498383   x 
            x  C           71         0.407339   0.926044   0.498594   x 
            x  C           72         0.333312   0.889130   0.498579   x 
            x  C           73         0.518377   0.036732   0.498810   x 
            x  C           74         0.444295  -0.000223   0.498613   x 
            x  C           75         0.518315   0.147848   0.498940   x 
            x  C           76         0.444225   0.110710   0.498614   x 
            x  C           77         0.518255   0.258942   0.500513   x 
            x  C           78         0.444241   0.221783   0.499807   x 
            x  C           79         0.518632   0.370186   0.505689   x 
            x  C           80         0.443777   0.332800   0.505615   x 
            x  C           81         0.520425   0.482436   0.510208   x 
            x  C           82         0.444403   0.444414   0.528003   x 
            x  C           83         0.518668   0.592913   0.505718   x 
            x  C           84         0.443813   0.555417   0.505621   x 
            x  C           85         0.518368   0.703825   0.500539   x 
            x  C           86         0.444353   0.666929   0.499802   x 
            x  C           87         0.518532   0.815023   0.498953   x 
            x  C           88         0.444441   0.778047   0.498608   x 
            x  C           89         0.518575   0.926078   0.498813   x 
            x  C           90         0.444495   0.889152   0.498610   x 
            x  C           91         0.629555   0.036737   0.499188   x 
            x  C           92         0.555531  -0.000174   0.498954   x 
            x  C           93         0.629563   0.147889   0.499199   x 
            x  C           94         0.555443   0.110801   0.498954   x 
            x  C           95         0.629659   0.259144   0.499560   x 
            x  C           96         0.555352   0.222063   0.499556   x 
            x  C           97         0.629868   0.370553   0.500512   x 
            x  C           98         0.555277   0.333531   0.502236   x 
            x  C           99         0.630160   0.481851   0.501075   x 
            x  C          100         0.556014   0.445036   0.505615   x 
            x  C          101         0.630164   0.592777   0.501094   x 
            x  C          102         0.556025   0.555433   0.505635   x 
            x  C          103         0.629912   0.703818   0.500554   x 
            x  C          104         0.555336   0.666226   0.502276   x 
            x  C          105         0.629792   0.815065   0.499601   x 
            x  C          106         0.555509   0.777817   0.499587   x 
            x  C          107         0.629718   0.926059   0.499213   x 
            x  C          108         0.555680   0.889154   0.498963   x 
            x  C          109         0.740821   0.036774   0.499371   x 
            x  C          110         0.666704  -0.000222   0.499280   x 
            x  C          111         0.740851   0.147957   0.499369   x 
            x  C          112         0.666664   0.110884   0.499276   x 
            x  C          113         0.740918   0.259235   0.499199   x 
            x  C          114         0.666624   0.222173   0.499293   x 
            x  C          115         0.740965   0.370484   0.498939   x 
            x  C          116         0.666739   0.333445   0.499555   x 
            x  C          117         0.741176   0.481662   0.498714   x 
            x  C          118         0.667025   0.444565   0.499803   x 
            x  C          119         0.741389   0.592941   0.498695   x 
            x  C          120         0.667117   0.555794   0.500090   x 
            x  C          121         0.741150   0.703993   0.498729   x 
            x  C          122         0.667024   0.666932   0.499831   x 
            x  C          123         0.740980   0.814993   0.498965   x 
            x  C          124         0.666796   0.777805   0.499596   x 
            x  C          125         0.740954   0.926067   0.499215   x 
            x  C          126         0.666766   0.888949   0.499318   x 
            x  C          127         0.852069   0.036815   0.499185   x 
            x  C          128         0.777911  -0.000195   0.499278   x 
            x  C          129         0.852103   0.148006   0.499369   x 
            x  C          130         0.777932   0.110889   0.499409   x 
            x  C          131         0.852144   0.259269   0.499187   x 
            x  C          132         0.777933   0.222135   0.499275   x 
            x  C          133         0.852151   0.370450   0.498814   x 
            x  C          134         0.778019   0.333356   0.498954   x 
            x  C          135         0.852299   0.481694   0.498478   x 
            x  C          136         0.778115   0.444580   0.498616   x 
            x  C          137         0.852377   0.592908   0.498286   x 
            x  C          138         0.778283   0.555851   0.498413   x 
            x  C          139         0.852350   0.703991   0.498283   x 
            x  C          140         0.778262   0.666925   0.498416   x 
            x  C          141         0.852204   0.815054   0.498473   x 
            x  C          142         0.778062   0.778005   0.498627   x 
            x  C          143         0.852023   0.926045   0.498811   x 
            x  C          144         0.778001   0.889125   0.498967   x 
            x  C          145         0.963108   0.036932   0.498804   x 
            x  C          146         0.889080  -0.000119   0.498948   x 
            x  C          147         0.963141   0.148022   0.499205   x 
            x  C          148         0.889158   0.110959   0.499274   x 
            x  C          149         0.963158   0.259268   0.499206   x 
            x  C          150         0.889189   0.222160   0.499277   x 
            x  C          151         0.963139   0.370410   0.498815   x 
            x  C          152         0.889146   0.333336   0.498955   x 
            x  C          153         0.963172   0.481638   0.498607   x 
            x  C          154         0.889194   0.444571   0.498621   x 
            x  C          155         0.963233   0.592812   0.498561   x 
            x  C          156         0.889312   0.555768   0.498408   x 
            x  C          157         0.963293   0.703989   0.498570   x 
            x  C          158         0.889321   0.666946   0.498337   x 
            x  C          159         0.963195   0.815035   0.498545   x 
            x  C          160         0.889262   0.778061   0.498397   x 
            x  C          161         0.963011   0.925940   0.498586   x 
            x  C          162         0.889033   0.889018   0.498610   x 
            xxxxxxxxxxxxxxxxxxxxxxxxxxxxxxxxxxxxxxxxxxxxxxxxxxxxxxxxxxxx
 
            xxxxxxxxxxxxxxxxxxxxxxxxxxxxxxxxxxxxxxxxxxxxxxxxxxxxxxxxxxxx
            x                          Product                         x
            xxxxxxxxxxxxxxxxxxxxxxxxxxxxxxxxxxxxxxxxxxxxxxxxxxxxxxxxxxxx
            x  Element    Atom        Fractional coordinates of atoms  x
            x            Number           u          v          w      x
            x----------------------------------------------------------x
            x  H            1         0.407308   0.370268   0.584748   x 
            x  C            1         0.073877   0.036888   0.498691   x 
            x  C            2        -0.000138  -0.000090   0.498200   x 
            x  C            3         0.073590   0.147857   0.498661   x 
            x  C            4        -0.000359   0.110836   0.498157   x 
            x  C            5         0.073531   0.258868   0.498672   x 
            x  C            6        -0.000413   0.221860   0.498168   x 
            x  C            7         0.073682   0.370107   0.498706   x 
            x  C            8        -0.000338   0.333062   0.498219   x 
            x  C            9         0.073771   0.481316   0.498727   x 
            x  C           10        -0.000199   0.444290   0.498404   x 
            x  C           11         0.073846   0.592530   0.498930   x 
            x  C           12        -0.000195   0.555463   0.498841   x 
            x  C           13         0.073844   0.703798   0.498972   x 
            x  C           14        -0.000172   0.666702   0.498986   x 
            x  C           15         0.073922   0.815089   0.498939   x 
            x  C           16        -0.000143   0.777924   0.498843   x 
            x  C           17         0.073881   0.926088   0.498728   x 
            x  C           18        -0.000126   0.889022   0.498396   x 
            x  C           19         0.185016   0.037000   0.499829   x 
            x  C           20         0.110926  -0.000043   0.498993   x 
            x  C           21         0.184760   0.147818   0.500344   x 
            x  C           22         0.110677   0.110815   0.499058   x 
            x  C           23         0.184625   0.258908   0.500636   x 
            x  C           24         0.110382   0.221784   0.499114   x 
            x  C           25         0.184689   0.370096   0.500337   x 
            x  C           26         0.110564   0.333009   0.499071   x 
            x  C           27         0.184957   0.481194   0.499810   x 
            x  C           28         0.110760   0.444164   0.498995   x 
            x  C           29         0.185058   0.592457   0.499147   x 
            x  C           30         0.110796   0.555403   0.498944   x 
            x  C           31         0.185019   0.703778   0.498928   x 
            x  C           32         0.110855   0.666682   0.498977   x 
            x  C           33         0.185065   0.815118   0.498938   x 
            x  C           34         0.110900   0.777970   0.498985   x 
            x  C           35         0.185130   0.926295   0.499164   x 
            x  C           36         0.110918   0.889157   0.498955   x 
            x  C           37         0.296235   0.036957   0.499835   x 
            x  C           38         0.222035  -0.000142   0.499689   x 
            x  C           39         0.296394   0.148477   0.502812   x 
            x  C           40         0.221846   0.110916   0.501024   x 
            x  C           41         0.295715   0.259272   0.506229   x 
            x  C           42         0.221592   0.221945   0.501662   x 
            x  C           43         0.295708   0.369647   0.506210   x 
            x  C           44         0.221568   0.332833   0.501654   x 
            x  C           45         0.296420   0.481123   0.502765   x 
            x  C           46         0.221832   0.444100   0.500995   x 
            x  C           47         0.296328   0.592575   0.499804   x 
            x  C           48         0.222024   0.555489   0.499663   x 
            x  C           49         0.296231   0.703864   0.498725   x 
            x  C           50         0.222105   0.666750   0.498944   x 
            x  C           51         0.296237   0.815073   0.498532   x 
            x  C           52         0.222141   0.778007   0.498837   x 
            x  C           53         0.296242   0.926100   0.498739   x 
            x  C           54         0.222189   0.889190   0.498960   x 
            x  C           55         0.407274   0.036717   0.498705   x 
            x  C           56         0.333260  -0.000111   0.499006   x 
            x  C           57         0.407342   0.147753   0.500340   x 
            x  C           58         0.333343   0.110874   0.501026   x 
            x  C           59         0.407895   0.259268   0.506220   x 
            x  C           60         0.333057   0.221785   0.506301   x 
            x  C           61         0.407314   0.370271   0.528642   x 
            x  C           62         0.331307   0.332260   0.510832   x 
            x  C           63         0.407931   0.481868   0.506203   x 
            x  C           64         0.333082   0.444482   0.506265   x 
            x  C           65         0.407455   0.592870   0.500322   x 
            x  C           66         0.333435   0.555710   0.500986   x 
            x  C           67         0.407462   0.703960   0.498699   x 
            x  C           68         0.333359   0.666800   0.498989   x 
            x  C           69         0.407484   0.815126   0.498141   x 
            x  C           70         0.333328   0.778018   0.498402   x 
            x  C           71         0.407438   0.926100   0.498145   x 
            x  C           72         0.333356   0.889178   0.498409   x 
            x  C           73         0.518448   0.036675   0.498081   x 
            x  C           74         0.444404  -0.000238   0.498224   x 
            x  C           75         0.518577   0.147801   0.498645   x 
            x  C           76         0.444381   0.110687   0.499056   x 
            x  C           77         0.518614   0.258933   0.500612   x 
            x  C           78         0.444666   0.221917   0.501648   x 
            x  C           79         0.518307   0.369678   0.506212   x 
            x  C           80         0.445305   0.332263   0.510825   x 
            x  C           81         0.518328   0.481886   0.506228   x 
            x  C           82         0.445326   0.446279   0.510828   x 
            x  C           83         0.518689   0.592971   0.500635   x 
            x  C           84         0.444743   0.556006   0.501644   x 
            x  C           85         0.518745   0.704132   0.498665   x 
            x  C           86         0.444544   0.667015   0.499056   x 
            x  C           87         0.518689   0.815244   0.498092   x 
            x  C           88         0.444576   0.778165   0.498224   x 
            x  C           89         0.518617   0.926122   0.498012   x 
            x  C           90         0.444594   0.889210   0.498017   x 
            x  C           91         0.629656   0.036771   0.498050   x 
            x  C           92         0.555580  -0.000177   0.498032   x 
            x  C           93         0.629695   0.147840   0.498058   x 
            x  C           94         0.555602   0.110744   0.498157   x 
            x  C           95         0.629744   0.258953   0.498639   x 
            x  C           96         0.555729   0.221797   0.499082   x 
            x  C           97         0.629807   0.370209   0.500323   x 
            x  C           98         0.555630   0.332882   0.501639   x 
            x  C           99         0.629115   0.481195   0.502799   x 
            x  C          100         0.555796   0.444523   0.506290   x 
            x  C          101         0.629833   0.592887   0.500354   x 
            x  C          102         0.555668   0.556016   0.501668   x 
            x  C          103         0.629832   0.704126   0.498673   x 
            x  C          104         0.555836   0.667240   0.499111   x 
            x  C          105         0.629882   0.815256   0.498085   x 
            x  C          106         0.555808   0.778247   0.498181   x 
            x  C          107         0.629836   0.926192   0.498055   x 
            x  C          108         0.555771   0.889268   0.498037   x 
            x  C          109         0.740835   0.036818   0.498012   x 
            x  C          110         0.666785  -0.000107   0.498037   x 
            x  C          111         0.740873   0.147906   0.498033   x 
            x  C          112         0.666760   0.110792   0.498034   x 
            x  C          113         0.740974   0.259113   0.498052   x 
            x  C          114         0.666809   0.221926   0.498145   x 
            x  C          115         0.740931   0.370293   0.498689   x 
            x  C          116         0.666876   0.333155   0.499044   x 
            x  C          117         0.740706   0.481362   0.499828   x 
            x  C          118         0.666704   0.444218   0.501008   x 
            x  C          119         0.740708   0.592661   0.499841   x 
            x  C          120         0.666712   0.555771   0.501027   x 
            x  C          121         0.740936   0.703951   0.498711   x 
            x  C          122         0.666906   0.667018   0.499075   x 
            x  C          123         0.741033   0.815211   0.498071   x 
            x  C          124         0.666914   0.778230   0.498176   x 
            x  C          125         0.740961   0.926201   0.498040   x 
            x  C          126         0.666949   0.889332   0.498047   x 
            x  C          127         0.851985   0.036843   0.498043   x 
            x  C          128         0.777929  -0.000082   0.498031   x 
            x  C          129         0.852016   0.147957   0.498046   x 
            x  C          130         0.777906   0.110859   0.498031   x 
            x  C          131         0.852095   0.259191   0.497988   x 
            x  C          132         0.777984   0.222047   0.498003   x 
            x  C          133         0.852119   0.370373   0.498121   x 
            x  C          134         0.778047   0.333229   0.498195   x 
            x  C          135         0.852116   0.481562   0.498733   x 
            x  C          136         0.777918   0.444387   0.498998   x 
            x  C          137         0.851907   0.592649   0.499174   x 
            x  C          138         0.777967   0.555650   0.499695   x 
            x  C          139         0.852106   0.703918   0.498738   x 
            x  C          140         0.777916   0.666854   0.499013   x 
            x  C          141         0.852060   0.815034   0.498119   x 
            x  C          142         0.778030   0.778121   0.498210   x 
            x  C          143         0.852011   0.926087   0.497982   x 
            x  C          144         0.778012   0.889239   0.498009   x 
            x  C          145         0.962965   0.036873   0.498063   x 
            x  C          146         0.889009  -0.000124   0.498012   x 
            x  C          147         0.962939   0.147966   0.498065   x 
            x  C          148         0.888955   0.110868   0.498039   x 
            x  C          149         0.962962   0.259141   0.498078   x 
            x  C          150         0.889033   0.222068   0.498021   x 
            x  C          151         0.963079   0.370333   0.498136   x 
            x  C          152         0.889099   0.333262   0.497998   x 
            x  C          153         0.963125   0.481561   0.498534   x 
            x  C          154         0.889131   0.444494   0.498398   x 
            x  C          155         0.963070   0.592715   0.498940   x 
            x  C          156         0.889106   0.555637   0.498962   x 
            x  C          157         0.963086   0.703895   0.498942   x 
            x  C          158         0.889113   0.666884   0.498965   x 
            x  C          159         0.963122   0.815025   0.498529   x 
            x  C          160         0.889113   0.777998   0.498395   x 
            x  C          161         0.962954   0.925994   0.498120   x 
            x  C          162         0.888978   0.889072   0.497986   x 
            xxxxxxxxxxxxxxxxxxxxxxxxxxxxxxxxxxxxxxxxxxxxxxxxxxxxxxxxxxxx
 
 
                         No user defined ionic velocities
 
                           -------------------------------
                                   Details of Species
                           -------------------------------
 
                               Mass of species in AMU
                                    H    1.0079400
                                    C   12.0107000
 
                          Electric Quadrupole Moment (Barn)
                                    H    0.0028600 Isotope  2
                                    C    0.0332700 Isotope 11
 
                          Files used for pseudopotentials:
                                    H 1|0.8|14|16|19|10N(qc=8)
                                    C 1|1.2|17|20|23|20N:21L(qc=8)
 
                           -------------------------------
                              k-Points For BZ Sampling
                           -------------------------------
                       MP grid size for SCF calculation is  1  1  1
                            with an offset of   0.000  0.000  0.000
                       Number of kpoints used =   1
 
                           -------------------------------
                               Symmetry and Constraints
                           -------------------------------
 
                      Maximum deviation from symmetry =  0.00000         ANG
 
                      Number of symmetry operations   = 1
         There are no ionic constraints specified or generated for this cell
                      Point group of crystal =     1: C1, 1, 1
                      Space group of crystal =     1: P1, P 1
 
             Set iprint > 1 for details on symmetry rotations/translations
 
                         Centre of mass is NOT constrained
 
                         Number of cell constraints= 6
                         Cell constraints are:  0 0 0 0 0 0
 
                         External pressure/stress (GPa)
                          0.00000   0.00000   0.00000
                                    0.00000   0.00000
                                              0.00000
 
                                --------------------
                                  DFT-D parameters
                                --------------------
 
                          Dispersion-correction scheme : MBD*      
                        Parameter sR :   0.830000 (default)
 
        xxxxxxxxxxxxxxxxxxxxxxxxxxxxxxxxxxxxxxxxxxxxxxxxxxxxxxxxxxxxxxxxxxxx
        x              Atomic DFT-D parameters                             x
        x  Species      C6            alpha        R0                      x
        x               eV A^6        A^3          A                       x
        x------------------------------------------------------------------x
        x  H             3.8839       0.6668       1.6404   (default)      x
        x  C            27.8448       1.7782       1.8997   (default)      x
        xxxxxxxxxxxxxxxxxxxxxxxxxxxxxxxxxxxxxxxxxxxxxxxxxxxxxxxxxxxxxxxxxxxx
 
  
+---------------- MEMORY AND SCRATCH DISK ESTIMATES PER PROCESS --------------+
|                                                     Memory          Disk    |
| Baseline code, static data and system overhead      788.0 MB         0.0 MB |
| BLAS internal memory storage                          0.0 MB         0.0 MB |
| Model and support data                               49.5 MB         0.0 MB |
| Electronic energy minimisation requirements          98.7 MB         0.0 MB |
| Force calculation requirements                        8.0 MB         0.0 MB |
|                                               ----------------------------- |
| Approx. total storage required per process          936.3 MB         0.0 MB |
|                                                                             |
| Requirements will fluctuate during execution and may exceed these estimates |
+-----------------------------------------------------------------------------+
Calculating approximate eigenstates for fixed initial Hamiltonian
Cut-off for approx. calculation is  282.421 eV
Improving approx. states at cut-off of  462.594 eV
Resetting cut-off to  800.000 eV
Calculating total energy with cut-off of  800.000 eV.
------------------------------------------------------------------------ <-- SCF
SCF loop      Energy           Fermi           Energy gain       Timer   <-- SCF
                               energy          per atom          (sec)   <-- SCF
------------------------------------------------------------------------ <-- SCF
Initial  -2.39184725E+004  0.00000000E+000                        47.42  <-- SCF
      1  -2.62667278E+004 -5.69574583E+000   1.44064746E+001      77.82  <-- SCF
      2  -2.62672603E+004 -5.69676908E+000   3.26632052E-003     108.84  <-- SCF
      3  -2.62025338E+004 -4.39400926E+000  -3.97094843E-001     144.00  <-- SCF
      4  -2.61985856E+004 -3.89216575E+000  -2.42220476E-002     179.97  <-- SCF
      5  -2.61973420E+004 -3.58601005E+000  -7.62946208E-003     216.98  <-- SCF
      6  -2.61970451E+004 -3.43221520E+000  -1.82127632E-003     251.94  <-- SCF
      7  -2.61966867E+004 -3.15513776E+000  -2.19904123E-003     285.60  <-- SCF
      8  -2.61964613E+004 -3.03202513E+000  -1.38288375E-003     318.74  <-- SCF
      9  -2.61964465E+004 -2.90055388E+000  -9.06973001E-005     351.95  <-- SCF
     10  -2.61965035E+004 -2.79798364E+000   3.49674603E-004     384.61  <-- SCF
     11  -2.61964139E+004 -2.78801107E+000  -5.49704246E-004     416.34  <-- SCF
     12  -2.61965576E+004 -2.77881101E+000   8.81622952E-004     448.18  <-- SCF
     13  -2.61964974E+004 -2.75238605E+000  -3.69322081E-004     479.36  <-- SCF
     14  -2.61965471E+004 -2.70518589E+000   3.04718242E-004     512.20  <-- SCF
     15  -2.61965431E+004 -2.63807735E+000  -2.41463293E-005     544.21  <-- SCF
     16  -2.61966064E+004 -2.55684865E+000   3.87985625E-004     575.82  <-- SCF
     17  -2.61966258E+004 -2.48006280E+000   1.19426260E-004     607.53  <-- SCF
     18  -2.61966047E+004 -2.43895491E+000  -1.29694500E-004     639.82  <-- SCF
     19  -2.61964976E+004 -2.41641203E+000  -6.56899933E-004     668.51  <-- SCF
     20  -2.61965233E+004 -2.41115921E+000   1.57791940E-004     696.42  <-- SCF
     21  -2.61965693E+004 -2.40860757E+000   2.82127677E-004     723.89  <-- SCF
     22  -2.61966548E+004 -2.40590710E+000   5.24669182E-004     751.11  <-- SCF
     23  -2.61966664E+004 -2.40483315E+000   7.08196211E-005     777.97  <-- SCF
     24  -2.61966708E+004 -2.40447626E+000   2.72301083E-005     804.25  <-- SCF
     25  -2.61966757E+004 -2.40436851E+000   2.98524498E-005     830.53  <-- SCF
     26  -2.61966768E+004 -2.40428206E+000   6.73088757E-006     857.57  <-- SCF
     27  -2.61966771E+004 -2.40416751E+000   1.87626589E-006     884.37  <-- SCF
     28  -2.61966772E+004 -2.40404090E+000   6.35255120E-007     910.65  <-- SCF
     29  -2.61966773E+004 -2.40388897E+000   5.52077277E-007     937.25  <-- SCF
     30  -2.61966773E+004 -2.40371280E+000   3.33159164E-007     963.72  <-- SCF
------------------------------------------------------------------------ <-- SCF
 
Integrated Spin Density     =    0.101270E-03 hbar/2                        
Integrated |Spin Density|   =    0.247582E-02 hbar/2                        
 
Final energy, E             =  -26196.33757615     eV
Final free energy (E-TS)    =  -26196.67734415     eV
(energies not corrected for finite basis set)
 
NB est. 0K energy (E-0.5TS)      =  -26196.50746015     eV
 
(SEDC) Total Energy Correction : -0.134177E+02 eV

Dispersion corrected final energy*, Ecor          =  -26209.75531106     eV
Dispersion corrected final free energy* (Ecor-TS) =  -26210.09507906     eV
NB dispersion corrected est. 0K energy* (Ecor-0.5TS) =  -26209.92519506     eV

Writing analysis data to 9x9.castep_bin

Writing model to 9x9.check
++++++++++++++++++++++++++++++++++++++++++++++++++++++++++++++++++++++++++++++++
+++++++++++++++++++++++ Starting Transition State Search +++++++++++++++++++++++
++++++++++++++++++++++++++++++++++++++++++++++++++++++++++++++++++++++++++++++++
 
++++++++++++++++++++++++++++++++++++++++++++++++++++++++++++++++++++++++++++++++
+++++++++++++++++++++++ Linear synchronous transit method ++++++++++++++++++++++
++++++++++++++++++++++++++++++++++++++++++++++++++++++++++++++++++++++++++++++++
 
 +++++++++++++++++++++++++++++++++++++++++++++++++++++++
 Difference vector: Fractional components 
 +++++++++++++++++++++++++++++++++++++++++++++++++++++++
   -0.037094430   -0.074138679    0.000649158
   -0.000022636    0.000132477    0.000230852
   -0.000137405   -0.000015109   -0.000402243
   -0.000323747   -0.000052243   -0.000290371
   -0.000231407   -0.000060282   -0.000797254
   -0.000292651   -0.000192506   -0.000915465
   -0.000448499   -0.000248422   -0.001136936
   -0.000178636   -0.000194907   -0.000243699
   -0.000171537   -0.000128065   -0.000739184
    0.000035476   -0.000136339    0.000258529
   -0.000031566   -0.000080859   -0.000214470
    0.000052265   -0.000094998    0.000377744
   -0.000048651   -0.000080075    0.000249399
   -0.000027337   -0.000036847    0.000207157
   -0.000099495   -0.000057138    0.000323906
    0.000016290    0.000115951    0.000179540
   -0.000087141    0.000022486    0.000189400
    0.000017652    0.000123523    0.000188900
   -0.000013986    0.000045834   -0.000175188
    0.000129893    0.000446409    0.001556918
    0.000058329    0.000230600    0.000608101
   -0.000098504    0.000109297    0.001622820
   -0.000196246   -0.000021612    0.000444502
   -0.000383866   -0.000012503    0.000087780
   -0.000654907   -0.000264039   -0.000471234
   -0.000299652   -0.000348335   -0.000203572
   -0.000444906   -0.000296903   -0.000510655
    0.000154314   -0.000298910    0.001105585
   -0.000016261   -0.000196096    0.000382715
    0.000194201   -0.000260193    0.000885096
    0.000059260   -0.000130886    0.000551097
    0.000097868   -0.000096655    0.000371720
    0.000025867   -0.000059918    0.000322436
    0.000085756    0.000118587    0.000176694
    0.000014470    0.000049148    0.000172955
    0.000184822    0.000388537    0.000602053
    0.000010321    0.000142219    0.000306725
    0.000301742    0.000448176    0.001557613
    0.000093848    0.000208093    0.001363030
    0.000509604    0.001033783    0.004119194
   -0.000065420    0.000328839    0.002615681
   -0.000333886    0.000603226    0.005135635
   -0.000304677    0.000130904    0.001833734
   -0.000193752   -0.000505041    0.000492309
   -0.001019255   -0.000650011   -0.000621652
    0.000371828   -0.000656204    0.001694616
   -0.000041034   -0.000346619    0.001186175
    0.000387358   -0.000281328    0.001145510
    0.000099162   -0.000204836    0.001278165
    0.000159326   -0.000070747    0.000469965
    0.000129223   -0.000060982    0.000631765
    0.000045160   -0.000009425   -0.000009024
    0.000097407    0.000025670    0.000186970
    0.000088856    0.000121638    0.000189033
    0.000115393    0.000141127    0.000305245
    0.000137036    0.000134468    0.000235042
    0.000156821    0.000232059    0.000609316
    0.000194775    0.000108671    0.001624845
    0.000380005    0.000327057    0.002616693
    0.000929530    0.000609110    0.005141480
    0.000032118    0.000079114    0.006207913
    0.000930368    0.001877387    0.018435912
   -0.002077854   -0.000535339    0.005197211
    0.001535043   -0.000551871   -0.004002922
   -0.000309202   -0.000516600    0.000640123
    0.000431165    0.000114427   -0.000742783
    0.000366436   -0.000021866    0.000924862
    0.000157193   -0.000041194    0.000001194
    0.000263923   -0.000067356    0.000609486
    0.000111256   -0.000022026   -0.000318795
    0.000073477   -0.000063134    0.000018901
    0.000099175    0.000056846   -0.000448621
    0.000043425    0.000047864   -0.000169978
    0.000070991   -0.000056897   -0.000729271
    0.000108178   -0.000015085   -0.000389240
    0.000261655   -0.000046888   -0.000295302
    0.000155336   -0.000022865    0.000442048
    0.000358977   -0.000009111    0.000098830
    0.000424843    0.000134951    0.001840959
   -0.000324946   -0.000507821    0.000522141
    0.001527755   -0.000537221    0.005210463
   -0.002097110   -0.000549892   -0.003980898
    0.000922910    0.001865105   -0.017175503
    0.000021491    0.000057488   -0.005082916
    0.000930291    0.000588901   -0.003976698
    0.000376327    0.000306931   -0.001873986
    0.000191113    0.000085978   -0.000746631
    0.000157768    0.000221128   -0.000861017
    0.000134755    0.000118871   -0.000384095
    0.000041138    0.000044592   -0.000800687
    0.000098770    0.000057939   -0.000593368
    0.000100847    0.000033879   -0.001138715
    0.000048965   -0.000003064   -0.000922146
    0.000131574   -0.000049784   -0.001141365
    0.000158698   -0.000056252   -0.000796322
    0.000084608   -0.000191461   -0.000920820
    0.000377322   -0.000265330   -0.000474320
   -0.000060191   -0.000344210   -0.000188324
    0.000352773   -0.000649656   -0.000596487
   -0.001044756   -0.000656280    0.001723557
   -0.000218734   -0.000513082    0.000675546
   -0.000330249    0.000109931   -0.000739469
   -0.000357003    0.000583014   -0.003966707
   -0.000079235    0.000307652   -0.001881931
    0.000499980    0.001014563   -0.003165226
    0.000089669    0.000191537   -0.001516089
    0.000299572    0.000430009   -0.001405602
    0.000117319    0.000132798   -0.001158885
    0.000091076    0.000114818   -0.000926123
    0.000013399    0.000043435   -0.001359339
    0.000080634    0.000115640   -0.001242681
    0.000021882   -0.000050282   -0.001335922
    0.000095977   -0.000091664   -0.001242413
    0.000056277   -0.000121847   -0.001146848
    0.000184849   -0.000246960   -0.001147433
   -0.000033316   -0.000191309   -0.000250495
    0.000137159   -0.000290110   -0.000511161
   -0.000469686   -0.000300280    0.001113910
   -0.000320828   -0.000346823    0.001204936
   -0.000680609   -0.000279940    0.001146749
   -0.000405351   -0.000023228    0.000936729
   -0.000214425   -0.000042049   -0.000018297
   -0.000117430    0.000086032   -0.000756233
    0.000053006    0.000217212   -0.000893871
    0.000117932    0.000425363   -0.001420470
    0.000007255    0.000134162   -0.001174771
    0.000183537    0.000382248   -0.001271169
   -0.000083688    0.000027643   -0.001142052
    0.000018876    0.000112374   -0.001247121
   -0.000087386   -0.000049434   -0.001323474
   -0.000025067   -0.000030287   -0.001378791
   -0.000048839   -0.000077519   -0.001198386
    0.000050730   -0.000087390   -0.001272700
   -0.000032623   -0.000077177   -0.000693321
    0.000028396   -0.000126684   -0.000758840
   -0.000183718   -0.000132028    0.000254757
   -0.000196510   -0.000192917    0.000382065
   -0.000470559   -0.000259218    0.000887922
   -0.000316591   -0.000200806    0.001281964
   -0.000244729   -0.000073676    0.000454583
   -0.000346723   -0.000071503    0.000597369
   -0.000143765   -0.000019874   -0.000354265
   -0.000031551    0.000116104   -0.000417627
   -0.000011831    0.000042431   -0.000828884
    0.000011960    0.000114340   -0.000957933
   -0.000142551   -0.000058524   -0.000741135
   -0.000071464   -0.000005245   -0.000935769
   -0.000202734   -0.000056049   -0.001139757
   -0.000202856   -0.000091326   -0.001235437
   -0.000196463   -0.000126966   -0.001128017
   -0.000156591   -0.000091606   -0.001255855
   -0.000060405   -0.000076342   -0.000678548
   -0.000047471   -0.000074277   -0.000956993
   -0.000046752   -0.000076590   -0.000072421
   -0.000062284   -0.000076724   -0.000222599
   -0.000162347   -0.000096659    0.000379045
   -0.000205607   -0.000131598    0.000554145
   -0.000206813   -0.000094389    0.000371857
   -0.000207765   -0.000061591    0.000627857
   -0.000072944   -0.000009969   -0.000016374
   -0.000149418   -0.000063324   -0.000002179
   -0.000056693    0.000054702   -0.000466399
   -0.000054608    0.000053304   -0.000623614
 +++++++++++++++++++++++++++++++++++++++++++++++++++++++
 
 +++++++++++++++++++++++++++++++++++++++++++++++++++++++
 Periodic cell setup complete
 +++++++++++++++++++++++++++++++++++++++++++++++++++++++
 
------------------------------------------------------------------------ <-- SCF
SCF loop      Energy           Fermi           Energy gain       Timer   <-- SCF
                               energy          per atom          (sec)   <-- SCF
------------------------------------------------------------------------ <-- SCF
Initial  -2.61963294E+004  0.00000000E+000                       990.18  <-- SCF
      1  -2.61966774E+004 -2.40359292E+000   2.13506575E-003    1014.70  <-- SCF
      2  -2.61966774E+004 -2.40359292E+000   5.28565052E-011    1040.22  <-- SCF
      3  -2.61966774E+004 -2.40358377E+000   5.17458923E-008    1065.37  <-- SCF
      4  -2.61966774E+004 -2.40357734E+000   3.82789658E-008    1091.00  <-- SCF
      5  -2.61966774E+004 -2.40355256E+000   4.25534343E-008    1116.51  <-- SCF
------------------------------------------------------------------------ <-- SCF
 
Integrated Spin Density     =   -0.249660E-05 hbar/2                        
Integrated |Spin Density|   =    0.720896E-03 hbar/2                        
 
Final energy, E             =  -26196.33763415     eV
Final free energy (E-TS)    =  -26196.67740217     eV
(energies not corrected for finite basis set)
 
NB est. 0K energy (E-0.5TS)      =  -26196.50751816     eV
 

Dispersion corrected final energy*, Ecor          =  -26209.75536906     eV
Dispersion corrected final free energy* (Ecor-TS) =  -26210.09513708     eV
NB dispersion corrected est. 0K energy* (Ecor-0.5TS) =  -26209.92525307     eV
 +++++++++++++++++++++++++++++++++++++++++++++++++++++++
 Reactant                      
 Path coordinate:                         0.00000
 Energy:                             -26210.09514 eV                            
 +++++++++++++++++++++++++++++++++++++++++++++++++++++++
 
            ++++++++++++++++++++++++++++++++++++++++++++++++++++++++++++++++++++
                             Coordinates: Fractional components
            ++++++++++++++++++++++++++++++++++++++++++++++++++++++++++++++++++++
            +  Element    Atom                                                 +
            +            Number           x          y          z              +
            ++++++++++++++++++++++++++++++++++++++++++++++++++++++++++++++++++++
            +H             1          0.444402   0.444407   0.584099           +
            +C             1          0.073899   0.036756   0.498460           +
            +C             2         -0.000001  -0.000075   0.498603           +
            +C             3          0.073913   0.147909   0.498951           +
            +C             4         -0.000127   0.110896   0.498954           +
            +C             5          0.073824   0.259061   0.499588           +
            +C             6          0.000036   0.222108   0.499305           +
            +C             7          0.073861   0.370302   0.498950           +
            +C             8         -0.000166   0.333190   0.498958           +
            +C             9          0.073735   0.481453   0.498469           +
            +C            10         -0.000168   0.444371   0.498619           +
            +C            11          0.073794   0.592625   0.498553           +
            +C            12         -0.000146   0.555543   0.498592           +
            +C            13          0.073872   0.703835   0.498765           +
            +C            14         -0.000072   0.666759   0.498662           +
            +C            15          0.073905   0.814973   0.498760           +
            +C            16         -0.000055   0.777902   0.498654           +
            +C            17          0.073863   0.925965   0.498539           +
            +C            18         -0.000112   0.888976   0.498571           +
            +C            19          0.184886   0.036554   0.498273           +
            +C            20          0.110867  -0.000273   0.498385           +
            +C            21          0.184859   0.147709   0.498721           +
            +C            22          0.110874   0.110837   0.498614           +
            +C            23          0.185009   0.258921   0.500549           +
            +C            24          0.111037   0.222048   0.499585           +
            +C            25          0.184988   0.370444   0.500540           +
            +C            26          0.111009   0.333306   0.499581           +
            +C            27          0.184802   0.481493   0.498704           +
            +C            28          0.110776   0.444360   0.498612           +
            +C            29          0.184864   0.592717   0.498262           +
            +C            30          0.110737   0.555534   0.498393           +
            +C            31          0.184921   0.703875   0.498557           +
            +C            32          0.110830   0.666742   0.498655           +
            +C            33          0.184980   0.815000   0.498761           +
            +C            34          0.110886   0.777921   0.498812           +
            +C            35          0.184945   0.925906   0.498562           +
            +C            36          0.110907   0.889015   0.498649           +
            +C            37          0.295933   0.036509   0.498278           +
            +C            38          0.221941  -0.000350   0.498326           +
            +C            39          0.295884   0.147443   0.498693           +
            +C            40          0.221912   0.110588   0.498408           +
            +C            41          0.296049   0.258668   0.501094           +
            +C            42          0.221897   0.221814   0.499828           +
            +C            43          0.295902   0.370152   0.505718           +
            +C            44          0.222587   0.333483   0.502276           +
            +C            45          0.296049   0.481779   0.501071           +
            +C            46          0.221873   0.444447   0.499809           +
            +C            47          0.295941   0.592856   0.498659           +
            +C            48          0.221925   0.555694   0.498384           +
            +C            49          0.296072   0.703935   0.498255           +
            +C            50          0.221976   0.666811   0.498313           +
            +C            51          0.296192   0.815082   0.498541           +
            +C            52          0.222044   0.777981   0.498650           +
            +C            53          0.296153   0.925979   0.498550           +
            +C            54          0.222073   0.889048   0.498655           +
            +C            55          0.407137   0.036583   0.498470           +
            +C            56          0.333103  -0.000343   0.498396           +
            +C            57          0.407147   0.147644   0.498715           +
            +C            58          0.332963   0.110547   0.498409           +
            +C            59          0.406965   0.258659   0.501078           +
            +C            60          0.333025   0.221706   0.500093           +
            +C            61          0.406384   0.368394   0.510207           +
            +C            62          0.333385   0.332795   0.505635           +
            +C            63          0.406396   0.482420   0.510206           +
            +C            64          0.333391   0.444998   0.505625           +
            +C            65          0.407024   0.592756   0.501065           +
            +C            66          0.333069   0.555732   0.500061           +
            +C            67          0.407305   0.704001   0.498698           +
            +C            68          0.333096   0.666867   0.498380           +
            +C            69          0.407373   0.815148   0.498460           +
            +C            70          0.333255   0.778081   0.498383           +
            +C            71          0.407339   0.926044   0.498594           +
            +C            72          0.333312   0.889130   0.498579           +
            +C            73          0.518377   0.036732   0.498810           +
            +C            74          0.444295  -0.000223   0.498613           +
            +C            75          0.518315   0.147848   0.498940           +
            +C            76          0.444225   0.110710   0.498614           +
            +C            77          0.518255   0.258942   0.500513           +
            +C            78          0.444241   0.221783   0.499807           +
            +C            79          0.518632   0.370186   0.505689           +
            +C            80          0.443777   0.332800   0.505615           +
            +C            81          0.520425   0.482436   0.510208           +
            +C            82          0.444403   0.444414   0.528003           +
            +C            83          0.518668   0.592913   0.505718           +
            +C            84          0.443813   0.555417   0.505621           +
            +C            85          0.518368   0.703825   0.500539           +
            +C            86          0.444353   0.666929   0.499802           +
            +C            87          0.518532   0.815023   0.498953           +
            +C            88          0.444441   0.778047   0.498608           +
            +C            89          0.518575   0.926078   0.498813           +
            +C            90          0.444495   0.889152   0.498610           +
            +C            91          0.629555   0.036737   0.499188           +
            +C            92          0.555531  -0.000174   0.498954           +
            +C            93          0.629563   0.147889   0.499199           +
            +C            94          0.555443   0.110801   0.498954           +
            +C            95          0.629659   0.259144   0.499560           +
            +C            96          0.555352   0.222063   0.499556           +
            +C            97          0.629868   0.370553   0.500512           +
            +C            98          0.555277   0.333531   0.502236           +
            +C            99          0.630160   0.481851   0.501075           +
            +C           100          0.556014   0.445036   0.505615           +
            +C           101          0.630164   0.592777   0.501094           +
            +C           102          0.556025   0.555433   0.505635           +
            +C           103          0.629912   0.703818   0.500554           +
            +C           104          0.555336   0.666226   0.502276           +
            +C           105          0.629792   0.815065   0.499601           +
            +C           106          0.555509   0.777817   0.499587           +
            +C           107          0.629718   0.926059   0.499213           +
            +C           108          0.555680   0.889154   0.498963           +
            +C           109          0.740821   0.036774   0.499371           +
            +C           110          0.666704  -0.000222   0.499280           +
            +C           111          0.740851   0.147957   0.499369           +
            +C           112          0.666664   0.110884   0.499276           +
            +C           113          0.740918   0.259235   0.499199           +
            +C           114          0.666624   0.222173   0.499293           +
            +C           115          0.740965   0.370484   0.498939           +
            +C           116          0.666739   0.333445   0.499555           +
            +C           117          0.741176   0.481662   0.498714           +
            +C           118          0.667025   0.444565   0.499803           +
            +C           119          0.741389   0.592941   0.498695           +
            +C           120          0.667117   0.555794   0.500090           +
            +C           121          0.741150   0.703993   0.498729           +
            +C           122          0.667024   0.666932   0.499831           +
            +C           123          0.740980   0.814993   0.498965           +
            +C           124          0.666796   0.777805   0.499596           +
            +C           125          0.740954   0.926067   0.499215           +
            +C           126          0.666766   0.888949   0.499318           +
            +C           127          0.852069   0.036815   0.499185           +
            +C           128          0.777911  -0.000195   0.499278           +
            +C           129          0.852103   0.148006   0.499369           +
            +C           130          0.777932   0.110889   0.499409           +
            +C           131          0.852144   0.259269   0.499187           +
            +C           132          0.777933   0.222135   0.499275           +
            +C           133          0.852151   0.370450   0.498814           +
            +C           134          0.778019   0.333356   0.498954           +
            +C           135          0.852299   0.481694   0.498478           +
            +C           136          0.778115   0.444580   0.498616           +
            +C           137          0.852377   0.592908   0.498286           +
            +C           138          0.778283   0.555851   0.498413           +
            +C           139          0.852350   0.703991   0.498283           +
            +C           140          0.778262   0.666925   0.498416           +
            +C           141          0.852204   0.815054   0.498473           +
            +C           142          0.778062   0.778005   0.498627           +
            +C           143          0.852023   0.926045   0.498811           +
            +C           144          0.778001   0.889125   0.498967           +
            +C           145          0.963108   0.036932   0.498804           +
            +C           146          0.889080  -0.000119   0.498948           +
            +C           147          0.963141   0.148022   0.499205           +
            +C           148          0.889158   0.110959   0.499274           +
            +C           149          0.963158   0.259268   0.499206           +
            +C           150          0.889189   0.222160   0.499277           +
            +C           151          0.963139   0.370410   0.498815           +
            +C           152          0.889146   0.333336   0.498955           +
            +C           153          0.963172   0.481638   0.498607           +
            +C           154          0.889194   0.444571   0.498621           +
            +C           155          0.963233   0.592812   0.498561           +
            +C           156          0.889312   0.555768   0.498408           +
            +C           157          0.963293   0.703989   0.498570           +
            +C           158          0.889321   0.666946   0.498337           +
            +C           159          0.963195   0.815035   0.498545           +
            +C           160          0.889262   0.778061   0.498397           +
            +C           161          0.963011   0.925940   0.498586           +
            +C           162          0.889033   0.889018   0.498610           +
            ++++++++++++++++++++++++++++++++++++++++++++++++++++++++++++++++++++
                           Forces: Cartesian components: eV/A                          
            ++++++++++++++++++++++++++++++++++++++++++++++++++++++++++++++++++++
            +  Element    Atom                                                 +
            +            Number           x          y          z              +
            ++++++++++++++++++++++++++++++++++++++++++++++++++++++++++++++++++++
            +H             1         -0.000046   0.000305  -0.008515           +
            +C             1         -0.002687  -0.000522   0.000530           +
            +C             2         -0.000816  -0.002223  -0.000338           +
            +C             3         -0.000826  -0.002731   0.000246           +
            +C             4         -0.000031   0.002053  -0.001162           +
            +C             5         -0.000299  -0.000232  -0.004832           +
            +C             6          0.000211   0.000414   0.002039           +
            +C             7         -0.002661   0.000722   0.000495           +
            +C             8          0.001499  -0.001106  -0.001214           +
            +C             9         -0.000801  -0.001752   0.000902           +
            +C            10         -0.002675   0.000393  -0.000455           +
            +C            11         -0.000194   0.001568  -0.000856           +
            +C            12         -0.000409  -0.001498  -0.002253           +
            +C            13          0.000392  -0.001735  -0.000920           +
            +C            14         -0.003237   0.001289  -0.002762           +
            +C            15         -0.001721   0.001103  -0.001081           +
            +C            16         -0.000355  -0.004003  -0.002802           +
            +C            17          0.000514  -0.001091  -0.001043           +
            +C            18         -0.001188   0.000220  -0.002155           +
            +C            19          0.000245  -0.002826  -0.002595           +
            +C            20          0.001010  -0.000408  -0.000725           +
            +C            21          0.000364   0.002139  -0.000845           +
            +C            22         -0.000746   0.002267   0.003259           +
            +C            23          0.000590   0.000491   0.002742           +
            +C            24         -0.001189   0.001923   0.001729           +
            +C            25          0.001293  -0.000066   0.002722           +
            +C            26          0.000726  -0.001992   0.001690           +
            +C            27          0.002350   0.000058  -0.000688           +
            +C            28          0.001407  -0.001524   0.002813           +
            +C            29         -0.001572   0.001780  -0.002405           +
            +C            30         -0.000589   0.000735  -0.001389           +
            +C            31          0.000211   0.000130  -0.002420           +
            +C            32          0.002934   0.001431  -0.002749           +
            +C            33          0.001798   0.000670  -0.001030           +
            +C            34         -0.000138  -0.000174  -0.002341           +
            +C            35         -0.000400  -0.000495  -0.002773           +
            +C            36          0.003074   0.002183  -0.002606           +
            +C            37         -0.000922  -0.002626  -0.002413           +
            +C            38          0.000352  -0.005175   0.000595           +
            +C            39          0.000050   0.004267   0.002778           +
            +C            40         -0.001711   0.002891   0.000527           +
            +C            41         -0.000882  -0.001497   0.001912           +
            +C            42          0.002753  -0.000118   0.002246           +
            +C            43          0.003471   0.002092   0.001647           +
            +C            44          0.001020   0.000332  -0.000687           +
            +C            45         -0.001957  -0.000363   0.001688           +
            +C            46          0.001070   0.002321   0.002482           +
            +C            47          0.003456  -0.001824   0.002767           +
            +C            48          0.001137  -0.003080   0.000453           +
            +C            49         -0.002218   0.000481  -0.002127           +
            +C            50         -0.004645   0.002829   0.000314           +
            +C            51         -0.001957  -0.000960  -0.000499           +
            +C            52          0.000379  -0.003522  -0.003038           +
            +C            53         -0.001403  -0.001133  -0.000905           +
            +C            54         -0.002393   0.002264  -0.002718           +
            +C            55          0.001977   0.000558   0.000785           +
            +C            56         -0.000719  -0.000778  -0.001014           +
            +C            57         -0.000376   0.003184  -0.000492           +
            +C            58          0.002069   0.002255   0.000277           +
            +C            59          0.001390  -0.001294   0.001806           +
            +C            60          0.000021  -0.001730  -0.002437           +
            +C            61          0.000328   0.002734   0.006231           +
            +C            62         -0.002979   0.002936   0.003547           +
            +C            63          0.002171  -0.001203   0.006046           +
            +C            64          0.001152  -0.004263   0.003336           +
            +C            65         -0.000389   0.002486   0.001511           +
            +C            66         -0.000973   0.000340  -0.001916           +
            +C            67          0.001542  -0.001891  -0.000426           +
            +C            68          0.003103   0.000706   0.000274           +
            +C            69          0.001420   0.001019   0.001019           +
            +C            70         -0.000956   0.000104  -0.001536           +
            +C            71          0.000482  -0.000247  -0.003035           +
            +C            72          0.001790   0.001255  -0.002409           +
            +C            73         -0.001356  -0.000812   0.000682           +
            +C            74          0.000647  -0.002876  -0.000622           +
            +C            75          0.001079  -0.001827   0.000736           +
            +C            76          0.000279   0.001126   0.002879           +
            +C            77         -0.000210   0.000768   0.002666           +
            +C            78         -0.003391  -0.000740   0.002235           +
            +C            79         -0.002939   0.001661   0.001564           +
            +C            80          0.002399   0.002935   0.003555           +
            +C            81         -0.001996  -0.001475   0.006090           +
            +C            82          0.000040  -0.000095   0.014370           +
            +C            83          0.000003  -0.003425   0.001332           +
            +C            84          0.004103   0.000387   0.003611           +
            +C            85          0.000378  -0.000683   0.002616           +
            +C            86         -0.001917  -0.002320   0.002664           +
            +C            87         -0.001378   0.001407   0.000429           +
            +C            88          0.001869  -0.000218   0.002716           +
            +C            89         -0.001571  -0.000798   0.000443           +
            +C            90         -0.002003   0.002384  -0.000628           +
            +C            91          0.000683   0.000547  -0.000441           +
            +C            92          0.000846   0.000670  -0.002328           +
            +C            93          0.002336   0.001691  -0.001805           +
            +C            94         -0.000181   0.000999  -0.001949           +
[...]
             C 63  -- C 66                  -0.11        -0.00          2.83871
             C 77  -- C 80                  -0.11         0.00          2.83872
             C 73  -- C 90                  -0.10        -0.00          2.83885
             C 91  -- C 108                 -0.10         0.00          2.83943
             C 24  -- C 147                 -0.10         0.00          2.83961
             C 23  -- C 62                  -0.10         0.00          2.83971
             C 81  -- C 120                 -0.10        -0.00          2.83974
             C 37  -- C 54                  -0.10         0.00          2.83979
             C 8   -- C 131                 -0.10        -0.00          2.84022
             C 12  -- C 135                 -0.10        -0.00          2.84042
             C 28  -- C 151                 -0.10        -0.00          2.84066
             C 30  -- C 153                 -0.10         0.00          2.84076
             C 26  -- C 149                 -0.10         0.00          2.84087
             C 19  -- C 36                  -0.10         0.00          2.84133
             C 16  -- C 139                 -0.10         0.00          2.84157
             C 127 -- C 144                 -0.10        -0.00          2.84165
             C 10  -- C 133                 -0.10        -0.00          2.84165
             C 109 -- C 126                 -0.10        -0.00          2.84168
             C 22  -- C 145                 -0.10        -0.00          2.84207
             C 4   -- C 127                 -0.10         0.00          2.84220
             C 6   -- C 129                 -0.10         0.00          2.84226
             C 32  -- C 155                 -0.10         0.00          2.84238
             C 14  -- C 137                 -0.10        -0.00          2.84244
             C 34  -- C 157                 -0.10         0.00          2.84272
             C 18  -- C 141                 -0.10        -0.00          2.84357
             C 36  -- C 159                 -0.10         0.00          2.84393
             C 1   -- C 18                  -0.10         0.00          2.84426
             C 60  -- C 61                  -0.10         0.00          2.84547
             C 82  -- C 83                  -0.10        -0.00          2.84566
             C 145 -- C 162                 -0.10        -0.00          2.84598
             C 2   -- C 143                 -0.10         0.00          2.84605
             C 56  -- C 71                  -0.10        -0.00          2.84614
             C 20  -- C 161                 -0.10         0.00          2.84620
             C 74  -- C 89                  -0.10         0.00          2.84621
             C 2   -- C 17                  -0.10         0.00          2.84624
             C 146 -- C 161                 -0.10         0.00          2.84638
             C 20  -- C 35                  -0.10        -0.00          2.84666
             C 20  -- C 21                  -0.10         0.00          2.84671
             C 92  -- C 107                 -0.10        -0.00          2.84679
             C 56  -- C 57                  -0.10         0.00          2.84686
             C 38  -- C 53                  -0.10         0.00          2.84690
             C 128 -- C 143                 -0.10        -0.00          2.84704
             C 110 -- C 125                 -0.10        -0.00          2.84715
             C 160 -- C 161                 -0.10         0.00          2.84766
             C 2   -- C 3                   -0.10         0.00          2.84796
             C 88  -- C 89                  -0.10        -0.00          2.84836
             C 3   -- C 42                  -0.10        -0.00          2.84845
             C 142 -- C 143                 -0.10        -0.00          2.84850
             C 75  -- C 78                  -0.10        -0.00          2.84873
             C 123 -- C 162                 -0.10         0.00          2.84888
             C 1   -- C 40                  -0.10         0.00          2.84900
             C 145 -- C 148                 -0.10         0.00          2.84903
             C 65  -- C 68                  -0.10         0.00          2.84904
             C 9   -- C 12                  -0.10         0.00          2.84913
             C 25  -- C 28                  -0.10        -0.00          2.84916
             C 15  -- C 18                  -0.10         0.00          2.84921
             C 70  -- C 71                  -0.10         0.00          2.84938
             C 149 -- C 152                 -0.10        -0.00          2.84956
             C 115 -- C 118                 -0.10         0.00          2.84968
             C 7   -- C 10                  -0.10         0.00          2.84970
             C 153 -- C 156                 -0.10         0.00          2.84979
             C 7   -- C 46                  -0.10         0.00          2.84980
             C 74  -- C 75                  -0.10         0.00          2.84992
             C 92  -- C 93                  -0.10         0.00          2.84998
             C 147 -- C 150                 -0.10         0.00          2.85004
             C 52  -- C 53                  -0.10         0.00          2.85005
             C 73  -- C 76                  -0.10        -0.00          2.85006
             C 13  -- C 16                  -0.10         0.00          2.85010
             C 106 -- C 107                 -0.10        -0.00          2.85010
             C 91  -- C 94                  -0.10         0.00          2.85022
             C 101 -- C 140                 -0.10         0.00          2.85023
             C 93  -- C 96                  -0.10         0.00          2.85024
             C 47  -- C 50                  -0.10        -0.00          2.85035
             C 122 -- C 123                 -0.10        -0.00          2.85049
             C 124 -- C 125                 -0.10        -0.00          2.85053
             C 125 -- C 146                 -0.10        -0.00          2.85060
             C 119 -- C 158                 -0.10        -0.00          2.85062
             C 11  -- C 14                  -0.10         0.00          2.85062
             C 17  -- C 38                  -0.10         0.00          2.85077
             C 3   -- C 6                   -0.10        -0.00          2.85078
             C 69  -- C 72                  -0.10        -0.00          2.85084
             C 151 -- C 154                 -0.10        -0.00          2.85088
             C 5   -- C 8                   -0.10        -0.00          2.85088
             C 121 -- C 160                 -0.10         0.00          2.85092
             C 155 -- C 158                 -0.10        -0.00          2.85097
             C 22  -- C 23                  -0.10         0.00          2.85098
             C 87  -- C 90                  -0.10         0.00          2.85109
             C 110 -- C 111                 -0.10        -0.00          2.85113
             C 86  -- C 87                  -0.10        -0.00          2.85118
             C 67  -- C 70                  -0.10         0.00          2.85118
             C 131 -- C 134                 -0.10        -0.00          2.85125
             C 49  -- C 52                  -0.10         0.00          2.85128
             C 157 -- C 160                 -0.10         0.00          2.85131
             C 51  -- C 54                  -0.10         0.00          2.85133
             C 158 -- C 159                 -0.10        -0.00          2.85133
             C 55  -- C 58                  -0.10         0.00          2.85133
             C 4   -- C 5                   -0.10        -0.00          2.85138
             C 16  -- C 17                  -0.10        -0.00          2.85145
             C 146 -- C 147                 -0.10        -0.00          2.85150
             C 97  -- C 136                 -0.10        -0.00          2.85153
             C 128 -- C 129                 -0.10        -0.00          2.85158
             C 140 -- C 141                 -0.10        -0.00          2.85162
             C 33  -- C 36                  -0.10        -0.00          2.85173
             C 35  -- C 56                  -0.10        -0.00          2.85179
             C 109 -- C 112                 -0.10         0.00          2.85180
             C 107 -- C 128                 -0.10        -0.00          2.85183
             C 133 -- C 136                 -0.10        -0.00          2.85186
             C 27  -- C 30                  -0.10         0.00          2.85200
             C 127 -- C 130                 -0.10        -0.00          2.85202
             C 89  -- C 110                 -0.10        -0.00          2.85214
             C 34  -- C 35                  -0.10         0.00          2.85222
             C 53  -- C 74                  -0.10         0.00          2.85235
             C 105 -- C 108                 -0.10        -0.00          2.85236
             C 113 -- C 152                 -0.10         0.00          2.85237
             C 115 -- C 154                 -0.10         0.00          2.85238
             C 103 -- C 142                 -0.10        -0.00          2.85248
             C 85  -- C 88                  -0.10        -0.00          2.85248
             C 105 -- C 144                 -0.10        -0.00          2.85249
             C 99  -- C 102                 -0.10        -0.00          2.85253
             C 113 -- C 116                 -0.10         0.00          2.85254
             C 31  -- C 34                  -0.10         0.00          2.85255
             C 41  -- C 44                  -0.10         0.00          2.85264
             C 71  -- C 92                  -0.10         0.00          2.85265
             C 117 -- C 156                 -0.10        -0.00          2.85269
             C 29  -- C 32                  -0.10        -0.00          2.85277
             C 159 -- C 162                 -0.10        -0.00          2.85281
             C 129 -- C 132                 -0.10         0.00          2.85285
             C 120 -- C 121                 -0.10        -0.00          2.85290
             C 137 -- C 140                 -0.10         0.00          2.85295
             C 135 -- C 138                 -0.10         0.00          2.85301
             C 38  -- C 39                  -0.10         0.00          2.85301
             C 40  -- C 41                  -0.10         0.00          2.85306
             C 123 -- C 126                 -0.10         0.00          2.85315
             C 111 -- C 114                 -0.10         0.00          2.85316
             C 59  -- C 98                  -0.10         0.00          2.85319
             C 138 -- C 139                 -0.10        -0.00          2.85329
             C 9   -- C 48                  -0.10         0.00          2.85345
             C 15  -- C 54                  -0.10        -0.00          2.85346
             C 102 -- C 103                 -0.10        -0.00          2.85354
             C 11  -- C 50                  -0.10        -0.00          2.85355
             C 45  -- C 84                  -0.10        -0.00          2.85359
             C 109 -- C 148                 -0.10         0.00          2.85365
             C 1   -- C 4                   -0.10         0.00          2.85368
             C 58  -- C 59                  -0.10         0.00          2.85377
             C 13  -- C 52                  -0.10         0.00          2.85382
             C 19  -- C 58                  -0.10         0.00          2.85384
             C 42  -- C 43                  -0.10        -0.00          2.85388
             C 84  -- C 85                  -0.10        -0.00          2.85393
             C 76  -- C 77                  -0.10         0.00          2.85398
             C 111 -- C 150                 -0.10         0.00          2.85399
             C 154 -- C 155                 -0.10         0.00          2.85404
             C 156 -- C 157                 -0.10         0.00          2.85406
             C 87  -- C 126                 -0.10         0.00          2.85429
             C 66  -- C 67                  -0.10        -0.00          2.85429
             C 37  -- C 40                  -0.10         0.00          2.85429
             C 10  -- C 11                  -0.10         0.00          2.85431
             C 150 -- C 151                 -0.10        -0.00          2.85431
             C 100 -- C 101                 -0.10         0.00          2.85446
             C 6   -- C 7                   -0.10        -0.00          2.85450
             C 68  -- C 69                  -0.10        -0.00          2.85453
             C 37  -- C 76                  -0.10         0.00          2.85458
             C 26  -- C 27                  -0.10         0.00          2.85464
             C 94  -- C 95                  -0.10         0.00          2.85472
             C 121 -- C 124                 -0.10        -0.00          2.85475
             C 141 -- C 144                 -0.10        -0.00          2.85480
             C 19  -- C 22                  -0.10         0.00          2.85482
             C 50  -- C 51                  -0.10         0.00          2.85483
             C 148 -- C 149                 -0.10        -0.00          2.85490
             C 64  -- C 65                  -0.10         0.00          2.85490
             C 29  -- C 68                  -0.10         0.00          2.85492
             C 8   -- C 9                   -0.10         0.00          2.85499
             C 75  -- C 114                 -0.10        -0.00          2.85501
             C 116 -- C 117                 -0.10         0.00          2.85505
             C 14  -- C 15                  -0.10        -0.00          2.85506
             C 78  -- C 79                  -0.10        -0.00          2.85511
             C 103 -- C 106                 -0.10        -0.00          2.85513
             C 45  -- C 48                  -0.10         0.00          2.85519
             C 152 -- C 153                 -0.10        -0.00          2.85527
             C 73  -- C 112                 -0.10        -0.00          2.85529
             C 48  -- C 49                  -0.10        -0.00          2.85530
             C 95  -- C 98                  -0.10        -0.00          2.85531
             C 91  -- C 130                 -0.10        -0.00          2.85533
             C 12  -- C 13                  -0.10         0.00          2.85535
             C 33  -- C 72                  -0.10         0.00          2.85536
             C 69  -- C 108                 -0.10        -0.00          2.85541
             C 23  -- C 26                  -0.10        -0.00          2.85541
             C 5   -- C 44                  -0.10        -0.00          2.85545
             C 95  -- C 134                 -0.10         0.00          2.85546
             C 67  -- C 106                 -0.10        -0.00          2.85553
             C 85  -- C 124                 -0.10        -0.00          2.85561
             C 93  -- C 132                 -0.10         0.00          2.85562
             C 139 -- C 142                 -0.10        -0.00          2.85567
             C 132 -- C 133                 -0.10        -0.00          2.85573
             C 31  -- C 70                  -0.10        -0.00          2.85573
             C 117 -- C 120                 -0.10         0.00          2.85576
             C 136 -- C 137                 -0.10        -0.00          2.85580
             C 51  -- C 90                  -0.10        -0.00          2.85587
             C 112 -- C 113                 -0.10        -0.00          2.85588
             C 21  -- C 60                  -0.10         0.00          2.85591
             C 32  -- C 33                  -0.10        -0.00          2.85592
             C 119 -- C 122                 -0.10         0.00          2.85598
             C 21  -- C 24                  -0.10        -0.00          2.85612
             C 130 -- C 131                 -0.10         0.00          2.85618
             C 55  -- C 94                  -0.10        -0.00          2.85621
             C 57  -- C 60                  -0.10         0.00          2.85624
             C 43  -- C 46                  -0.10         0.00          2.85624
             C 30  -- C 31                  -0.10         0.00          2.85628
             C 83  -- C 86                  -0.10        -0.00          2.85635
             C 97  -- C 100                 -0.10        -0.00          2.85636
             C 28  -- C 29                  -0.10         0.00          2.85639
             C 134 -- C 135                 -0.10         0.00          2.85641
             C 114 -- C 115                 -0.10         0.00          2.85663
             C 101 -- C 104                 -0.10        -0.00          2.85670
             C 39  -- C 78                  -0.10         0.00          2.85678
             C 57  -- C 96                  -0.10        -0.00          2.85679
             C 39  -- C 42                  -0.10         0.00          2.85686
             C 83  -- C 122                 -0.10        -0.00          2.85690
             C 49  -- C 88                  -0.10        -0.00          2.85690
             C 99  -- C 138                 -0.10        -0.00          2.85697
             C 104 -- C 105                 -0.10        -0.00          2.85702
             C 47  -- C 86                  -0.10        -0.00          2.85708
             C 77  -- C 116                 -0.10        -0.00          2.85728
             C 27  -- C 66                  -0.10         0.00          2.85733
             C 65  -- C 104                 -0.10        -0.00          2.85735
             C 24  -- C 25                  -0.10        -0.00          2.85762
             C 79  -- C 118                 -0.10         0.00          2.85767
             C 44  -- C 45                  -0.10        -0.00          2.85773
             C 25  -- C 64                  -0.10        -0.00          2.85785
             C 98  -- C 99                  -0.10        -0.00          2.85812
             C 118 -- C 119                 -0.10         0.00          2.85857
             C 46  -- C 47                  -0.10         0.00          2.85924
             C 96  -- C 97                  -0.10        -0.00          2.85941
             C 81  -- C 84                  -0.09        -0.00          2.86978
             C 59  -- C 62                  -0.09         0.00          2.86983
             C 41  -- C 80                  -0.09         0.00          2.87009
             C 63  -- C 102                 -0.09        -0.00          2.87049
             C 62  -- C 63                  -0.08         0.00          2.88672
             C 80  -- C 81                  -0.08         0.00          2.88695
             C 79  -- C 82                  -0.08         0.00          2.89194
             C 61  -- C 64                  -0.08        -0.00          2.89196
             C 61  -- C 100                 -0.08        -0.00          2.89275
             C 43  -- C 82                  -0.08         0.00          2.89286
================================================================================
 

Writing analysis data to 9x9.castep_bin

Writing model to 9x9.check
 
 A BibTeX formatted list of references used in this run has been written to 
 9x9.bib
 
Initialisation time =      4.09 s
Calculation time    =   7125.65 s
Finalisation time   =      8.88 s
Total time          =   7138.62 s
Peak Memory Use     = 1107540 kB
  
Overall parallel efficiency rating: Poor (40%)                                  
  
Data was distributed by:-
G-vector (128-way); efficiency rating: Poor (41%)                               
