 +-------------------------------------------------+
 |                                                 |
 |      CCC   AA    SSS  TTTTT  EEEEE  PPPP        |
 |     C     A  A  S       T    E      P   P       |
 |     C     AAAA   SS     T    EEE    PPPP        |
 |     C     A  A     S    T    E      P           |
 |      CCC  A  A  SSS     T    EEEEE  P           |
 |                                                 |
 +-------------------------------------------------+
 |                                                 |
 | Welcome to Academic Release CASTEP version 21.11|          
 | Ab Initio Total Energy Program                  |
 |                                                 |
 | Authors:                                        |
 | M. Segall, M. Probert, C. Pickard, P. Hasnip,   |
 | S. Clark, K. Refson, J. R. Yates, M. Payne      |
 |                                                 |
 | Contributors:                                   |
 | P. Lindan, P. Haynes, J. White, V. Milman,      |
 | N. Govind, M. Gibson, P. Tulip, V. Cocula,      |
 | B. Montanari, D. Quigley, M. Glover,            |
 | L. Bernasconi, A. Perlov, M. Plummer,           |
 | E. McNellis, J. Meyer, J. Gale, D. Jochym       |
 | J. Aarons, B. Walker, R. Gillen, D. Jones       |
 | T. Green, I. J. Bush, C. J. Armstrong,          |
 | E. J. Higgins, E. L. Brown, M. S. McFly,        |
 | J. Wilkins, B-C. Shih, P. J. P. Byrne,          |
 | R. J. Maurer, J. C. Womack, J. Dziedzic,        |
 | A. Bartok-Partay, L. LeBlanc                    |
 |                                                 |
 | Copyright (c) 2000 - 2021                       |
 |                                                 |
 |     Distributed under license from Cambridge    |
 |     Enterprise for academic use only.           |
 |                                                 |
 | Please cite                                     |
 |                                                 |
 |     "First principles methods using CASTEP"     |
 |                                                 |
 |         Zeitschrift fuer Kristallographie       |
 |           220(5-6) pp. 567-570 (2005)           |
 |                                                 |
 | S. J. Clark, M. D. Segall, C. J. Pickard,       |
 | P. J. Hasnip, M. J. Probert, K. Refson,         |
 | M. C. Payne                                     |
 |                                                 |
 |       in all publications arising from          |
 |              your use of CASTEP                 |
 |                                                 |
 +-------------------------------------------------+
 |                                                 |
 |              http://www.castep.org              |
 |                                                 |
 +-------------------------------------------------+
 
 
 
 Compiled for linux_x86_64_cray-XT on Tue, 01 Mar 2022 09:19:15 +0000
 from code version 7d4405a8a+  HEAD  Sat Nov 27 13:38:33 2021 +0000
 Compiler: Cray Fortran 12.0.3; Optimisation: fast
 MATHLIBS: LibSci (LAPACK version 3.6.1)
 FFT Lib : fftw3 version commercial-fftw-3.3.8-sse2-avx-avx2-avx2_128
 Fundamental constants values: CODATA 2014
 
 Run started: Sun, 30 Oct 2022 19:44:20 +0000
 
 Atomic calculation performed for H: 1s1
 
 Converged in 41 iterations to an ae energy of -12.488 eV
 
   ============================================================                
   | Pseudopotential Report - Date of generation 30-10-2022   |                
   ------------------------------------------------------------                
   | Element: H Ionic charge:  1.00 Level of theory: PBE      |                
   | Atomic Solver: Koelling-Harmon                           |                
   |                                                          |                
   |               Reference Electronic Structure             |                
   |         Orbital         Occupation         Energy        |                
   |            1s              1.000           -0.239        |                
   |                                                          |                
   |                 Pseudopotential Definition               |                
   |        Beta     l      e      Rc     scheme   norm       |                
   |          1      0   -0.239   0.599     qc      0         |                
   |          2      0    0.250   0.599     qc      0         |                
   |         loc     1    0.000   0.599     pn      0         |                
   |                                                          |                
   | Augmentation charge Rinner = 0.421                       |                
   | No partial core correction                               |                
   ------------------------------------------------------------                
   | "1|0.6|13|15|17|10(qc=8)"                                |                
   ------------------------------------------------------------                
   |      Author: Chris J. Pickard, Cambridge University      |                
   ============================================================                
 
 Atomic calculation performed for C: 1s2 2s2 2p2
 
 Converged in 54 iterations to an ae energy of -1027.632 eV
 
   ============================================================                
   | Pseudopotential Report - Date of generation 30-10-2022   |                
   ------------------------------------------------------------                
   | Element: C Ionic charge:  4.00 Level of theory: PBE      |                
   | Atomic Solver: Koelling-Harmon                           |                
   |                                                          |                
   |               Reference Electronic Structure             |                
   |         Orbital         Occupation         Energy        |                
   |            2s              2.000           -0.505        |                
   |            2p              2.000           -0.194        |                
   |                                                          |                
   |                 Pseudopotential Definition               |                
   |        Beta     l      e      Rc     scheme   norm       |                
   |          1      0   -0.505   1.201     qc      1         |                
   |         loc     1   -0.194   1.201     qc      1         |                
   |                                                          |                
   | No charge augmentation                                   |                
   | Partial core correction Rc = 0.839                       |                
   ------------------------------------------------------------                
   | "1|1.2|17|20|23|20N:21L(qc=8)"                           |                
   ------------------------------------------------------------                
   |      Author: Chris J. Pickard, Cambridge University      |                
   ============================================================                
 
 Pseudo atomic calculation performed for H 1s1
 
 Converged in 13 iterations to a total energy of -12.4856 eV
 
 Pseudo atomic calculation performed for C 2s2 2p2
 
 Converged in 18 iterations to a total energy of -152.4291 eV
 Calculation parallelised over 128 processes.
 Data is distributed by G-vector(16-way) and k-point(8-way)

 ************************************ Title ************************************
 

 ***************************** General Parameters ******************************
  
 output verbosity                               : normal  (1)
 write checkpoint data to                       : 4x4.check
 type of calculation                            : transition state search
 stress calculation                             : off
 density difference calculation                 : off
 electron localisation func (ELF) calculation   : off
 Hirshfeld analysis                             : off
 polarisation (Berry phase) analysis            : off
 molecular orbital projected DOS                : off
 deltaSCF calculation                           : off
 unlimited duration calculation
 timing information                             : on
 memory usage estimate                          : on
 write extra output files                       : on
 write final potential to formatted file        : off
 write final density to formatted file          : off
 write structure in CELL formatted file         : on
 write BibTeX reference list                    : on
 write OTFG pseudopotential files               : on
 write electrostatic potential file             : on
 write bands file                               : on
 checkpoint writing                             : both castep_bin and check files
  
 output         length unit                     : A
 output           mass unit                     : amu
 output           time unit                     : ps
 output         charge unit                     : e
 output           spin unit                     : hbar/2
 output         energy unit                     : eV
 output          force unit                     : eV/A
 output       velocity unit                     : A/ps
 output       pressure unit                     : GPa
 output     inv_length unit                     : 1/A
 output      frequency unit                     : cm-1
 output force constant unit                     : eV/A**2
 output         volume unit                     : A**3
 output   IR intensity unit                     : (D/A)**2/amu
 output         dipole unit                     : D
 output         efield unit                     : eV/A/e
 output        entropy unit                     : J/mol/K
 output    efield chi2 unit                     : pm/V
  
 wavefunctions paging                           : none
 random number generator seed                   : randomised (194420805)
 data distribution                              : optimal for this architecture
 optimization strategy                          : maximize speed(+++)

 *********************** Exchange-Correlation Parameters ***********************
  
 using functional                               : Perdew Burke Ernzerhof
 relativistic treatment                         : Koelling-Harmon
 DFT+D: Semi-empirical dispersion correction    : on
 SEDC with                                      : MBD@rsSCS method

 ************************* Pseudopotential Parameters **************************
  
 pseudopotential representation                 : reciprocal space
 <beta|phi> representation                      : reciprocal space
 spin-orbit coupling                            : off

 **************************** Basis Set Parameters *****************************
  
 plane wave basis set cut-off                   :   800.0000   eV
 size of standard grid                          :     1.7500
 size of   fine   gmax                          :    25.3584   1/A
 finite basis set correction                    : none

 **************************** Electronic Parameters ****************************
  
 number of  electrons                           :  130.0    
 net charge of system                           :  0.000    
 treating system as non-spin-polarized
 number of bands                                :         98

 ********************* Electronic Minimization Parameters **********************
  
 Method: Treating system as metallic with density mixing treatment of electrons,
         and number of  SD  steps               :          1
         and number of  CG  steps               :          4
  
 total energy / atom convergence tol.           : 0.1000E-05   eV
 eigen-energy convergence tolerance             : 0.3469E-06   eV
 max force / atom convergence tol.              : ignored
 convergence tolerance window                   :          3   cycles
 max. number of SCF cycles                      :        100
 number of fixed-spin iterations                :         10
 smearing scheme                                : Gaussian
 smearing width                                 : 0.2000       eV
 Fermi energy convergence tolerance             : 0.2721E-13   eV
 periodic dipole correction                     : NONE

 ************************** Density Mixing Parameters **************************
  
 density-mixing scheme                          : Pulay
 max. length of mixing history                  :         20
 charge density mixing amplitude                : 0.8000    
 cut-off energy for mixing                      :  800.0       eV

 *********************** Population Analysis Parameters ************************
  
 Population analysis with cutoff                :  3.000       A
 Population analysis output                     : summary and pdos components

 ********************* Transition State Search Parameters **********************
  
 search method                                  : LSTQST
 LSTQST protocol                                : COMPLETELSTQST   
 max. number of QST iterations                  :         60
 max. number of CG  iterations                  :         60
 max. ionic |force| tolerance                   : 0.2571       eV/A
 max. ionic |displacement| tolerance            : 0.1000E-02   A

 *******************************************************************************
  
 
                           -------------------------------
                                      Unit Cell
                           -------------------------------
        Real Lattice(A)                      Reciprocal Lattice(1/A)
     9.8800000     0.0000000     0.0000000        0.635949930   0.367165863   0.000000000
    -4.9400000     8.5563310     0.0000000        0.000000000   0.734331726   0.000000000
     0.0000000     0.0000000    20.0339000        0.000000000   0.000000000   0.313627666
 
                       Lattice parameters(A)       Cell Angles
                    a =      9.880000          alpha =   90.000000
                    b =      9.880000          beta  =   90.000000
                    c =     20.033900          gamma =  120.000000
 
                       Current cell volume =          1693.596795       A**3
                                   density =             0.228129   AMU/A**3
                                           =             0.378817     g/cm^3
 
                           -------------------------------
                                     Cell Contents
                           -------------------------------
                         Total number of ions in cell =   34
                      Total number of species in cell =    2
                        Max number of any one species =   32
 
            xxxxxxxxxxxxxxxxxxxxxxxxxxxxxxxxxxxxxxxxxxxxxxxxxxxxxxxxxxxx
            x                          Reactant                        x
            xxxxxxxxxxxxxxxxxxxxxxxxxxxxxxxxxxxxxxxxxxxxxxxxxxxxxxxxxxxx
            x  Element    Atom        Fractional coordinates of atoms  x
            x            Number           u          v          w      x
            x----------------------------------------------------------x
            x  H            1         0.498634   0.246799   0.578152   x 
            x  H            2         0.668851   0.587175   0.578124   x 
            x  C            1         0.166589   0.083705   0.496900   x 
            x  C            2         0.000984   0.001366   0.494732   x 
            x  C            3         0.166611   0.333544   0.491397   x 
            x  C            4         0.000016   0.250233   0.490662   x 
            x  C            5         0.166560   0.583542   0.490690   x 
            x  C            6        -0.000041   0.500193   0.491365   x 
            x  C            7         0.165658   0.832451   0.494770   x 
            x  C            8         0.000037   0.750051   0.496885   x 
            x  C            9         0.414473   0.078975   0.502886   x 
            x  C           10         0.250502  -0.000586   0.498157   x 
            x  C           11         0.415134   0.336167   0.504076   x 
            x  C           12         0.249740   0.250702   0.496380   x 
            x  C           13         0.415968   0.583106   0.496353   x 
            x  C           14         0.249970   0.500237   0.491404   x 
            x  C           15         0.416519   0.832518   0.494729   x 
            x  C           16         0.249555   0.749497   0.493017   x 
            x  C           17         0.667160   0.083711   0.496821   x 
            x  C           18         0.498974  -0.000574   0.498104   x 
            x  C           19         0.671200   0.336231   0.503978   x 
            x  C           20         0.499757   0.249327   0.522133   x 
            x  C           21         0.667402   0.584553   0.522105   x 
            x  C           22         0.495912   0.497679   0.504056   x 
            x  C           23         0.668073   0.834448   0.498089   x 
            x  C           24         0.499915   0.750193   0.496849   x 
            x  C           25         0.917351   0.084436   0.492971   x 
            x  C           26         0.750511   0.001368   0.494700   x 
            x  C           27         0.916931   0.333667   0.491342   x 
            x  C           28         0.751081   0.250786   0.496283   x 
            x  C           29         0.917175   0.583184   0.496313   x 
            x  C           30         0.751932   0.497718   0.503984   x 
            x  C           31         0.916369   0.834398   0.498102   x 
            x  C           32         0.752514   0.754847   0.502835   x 
            xxxxxxxxxxxxxxxxxxxxxxxxxxxxxxxxxxxxxxxxxxxxxxxxxxxxxxxxxxxx
 
            xxxxxxxxxxxxxxxxxxxxxxxxxxxxxxxxxxxxxxxxxxxxxxxxxxxxxxxxxxxx
            x                          Product                         x
            xxxxxxxxxxxxxxxxxxxxxxxxxxxxxxxxxxxxxxxxxxxxxxxxxxxxxxxxxxxx
            x  Element    Atom        Fractional coordinates of atoms  x
            x            Number           u          v          w      x
            x----------------------------------------------------------x
            x  H            1         0.571353   0.386730   0.670326   x 
            x  H            2         0.615214   0.473783   0.675117   x 
            x  C            1         0.166522   0.083348   0.497814   x 
            x  C            2        -0.000054   0.000044   0.497778   x 
            x  C            3         0.166502   0.333458   0.497817   x 
            x  C            4        -0.000113   0.250017   0.497774   x 
            x  C            5         0.166545   0.583633   0.497750   x 
            x  C            6        -0.000091   0.500163   0.497829   x 
            x  C            7         0.166594   0.833659   0.497793   x 
            x  C            8        -0.000035   0.750260   0.497808   x 
            x  C            9         0.416624   0.083314   0.497826   x 
            x  C           10         0.249916   0.000031   0.497801   x 
            x  C           11         0.416645   0.333482   0.497944   x 
            x  C           12         0.249887   0.250027   0.497840   x 
            x  C           13         0.416707   0.583690   0.497862   x 
            x  C           14         0.249925   0.500174   0.497823   x 
            x  C           15         0.416684   0.833704   0.497798   x 
            x  C           16         0.249957   0.750312   0.497771   x 
            x  C           17         0.666843   0.083432   0.497818   x 
            x  C           18         0.500104   0.000059   0.497796   x 
            x  C           19         0.666848   0.333545   0.497929   x 
            x  C           20         0.500041   0.250047   0.497974   x 
            x  C           21         0.666878   0.583700   0.497941   x 
            x  C           22         0.500094   0.500225   0.497918   x 
            x  C           23         0.666867   0.833736   0.497806   x 
            x  C           24         0.500149   0.750380   0.497807   x 
            x  C           25         0.916803   0.083469   0.497759   x 
            x  C           26         0.750219   0.000075   0.497781   x 
            x  C           27         0.916848   0.333612   0.497815   x 
            x  C           28         0.750201   0.250124   0.497838   x 
            x  C           29         0.916885   0.583725   0.497880   x 
            x  C           30         0.750215   0.500264   0.497922   x 
            x  C           31         0.916843   0.833684   0.497801   x 
            x  C           32         0.750221   0.750343   0.497883   x 
            xxxxxxxxxxxxxxxxxxxxxxxxxxxxxxxxxxxxxxxxxxxxxxxxxxxxxxxxxxxx
 
 
                         No user defined ionic velocities
 
                           -------------------------------
                                   Details of Species
                           -------------------------------
 
                               Mass of species in AMU
                                    H    1.0079400
                                    C   12.0107000
 
                          Electric Quadrupole Moment (Barn)
                                    H    0.0028600 Isotope  2
                                    C    0.0332700 Isotope 11
 
                          Files used for pseudopotentials:
                                    H 1|0.6|13|15|17|10(qc=8)
                                    C 1|1.2|17|20|23|20N:21L(qc=8)
 
                           -------------------------------
                              k-Points For BZ Sampling
                           -------------------------------
                       MP grid size for SCF calculation is  4  4  1
                            with an offset of   0.000  0.000  0.000
                       Number of kpoints used =   8
 
                           -------------------------------
                               Symmetry and Constraints
                           -------------------------------
 
                      Maximum deviation from symmetry =  0.00000         ANG
 
                      Number of symmetry operations   = 1
         There are no ionic constraints specified or generated for this cell
                      Point group of crystal =     1: C1, 1, 1
                      Space group of crystal =     1: P1, P 1
 
             Set iprint > 1 for details on symmetry rotations/translations
 
                         Centre of mass is NOT constrained
 
                         Number of cell constraints= 6
                         Cell constraints are:  0 0 0 0 0 0
 
                         External pressure/stress (GPa)
                          0.00000   0.00000   0.00000
                                    0.00000   0.00000
                                              0.00000
 
                                --------------------
                                  DFT-D parameters
                                --------------------
 
                          Dispersion-correction scheme : MBD*      
                        Parameter sR :   0.830000 (default)
 
        xxxxxxxxxxxxxxxxxxxxxxxxxxxxxxxxxxxxxxxxxxxxxxxxxxxxxxxxxxxxxxxxxxxx
        x              Atomic DFT-D parameters                             x
        x  Species      C6            alpha        R0                      x
        x               eV A^6        A^3          A                       x
        x------------------------------------------------------------------x
        x  H             3.8839       0.6668       1.6404   (default)      x
        x  C            27.8448       1.7782       1.8997   (default)      x
        xxxxxxxxxxxxxxxxxxxxxxxxxxxxxxxxxxxxxxxxxxxxxxxxxxxxxxxxxxxxxxxxxxxx
 
  
+---------------- MEMORY AND SCRATCH DISK ESTIMATES PER PROCESS --------------+
|                                                     Memory          Disk    |
| Baseline code, static data and system overhead      772.0 MB         0.0 MB |
| BLAS internal memory storage                          0.0 MB         0.0 MB |
| Model and support data                               37.8 MB         0.0 MB |
| Electronic energy minimisation requirements          62.0 MB         0.0 MB |
| Force calculation requirements                       12.6 MB         0.0 MB |
|                                               ----------------------------- |
| Approx. total storage required per process          871.7 MB         0.0 MB |
|                                                                             |
| Requirements will fluctuate during execution and may exceed these estimates |
+-----------------------------------------------------------------------------+
Calculating approximate eigenstates for fixed initial Hamiltonian
Cut-off for approx. calculation is  119.774 eV
Improving approx. states at cut-off of  462.594 eV
Resetting cut-off to  800.000 eV
Calculating total energy with cut-off of  800.000 eV.
------------------------------------------------------------------------ <-- SCF
SCF loop      Energy           Fermi           Energy gain       Timer   <-- SCF
                               energy          per atom          (sec)   <-- SCF
------------------------------------------------------------------------ <-- SCF
Initial  -4.75163319E+003  0.00000000E+000                        10.34  <-- SCF
      1  -5.21617580E+003 -5.62104651E+000   1.36630179E+001      15.89  <-- SCF
      2  -5.21641017E+003 -5.62262634E+000   6.89330662E-003      21.82  <-- SCF
      3  -5.20306167E+003 -4.29670913E+000  -3.92602938E-001      28.15  <-- SCF
      4  -5.20226798E+003 -3.78998813E+000  -2.33438933E-002      34.48  <-- SCF
      5  -5.20201720E+003 -3.48809910E+000  -7.37569722E-003      40.96  <-- SCF
      6  -5.20192582E+003 -3.27682421E+000  -2.68775489E-003      47.34  <-- SCF
      7  -5.20185406E+003 -3.02916011E+000  -2.11070763E-003      53.51  <-- SCF
      8  -5.20180394E+003 -2.88200511E+000  -1.47409381E-003      59.61  <-- SCF
      9  -5.20180343E+003 -2.72772276E+000  -1.50041614E-005      65.74  <-- SCF
     10  -5.20181957E+003 -2.62863783E+000   4.74850488E-004      71.71  <-- SCF
     11  -5.20182708E+003 -2.55687300E+000   2.20763939E-004      77.60  <-- SCF
     12  -5.20182683E+003 -2.48618749E+000  -7.20528084E-006      83.50  <-- SCF
     13  -5.20182431E+003 -2.41145084E+000  -7.41046524E-005      88.84  <-- SCF
     14  -5.20182255E+003 -2.33595124E+000  -5.18173528E-005      94.14  <-- SCF
     15  -5.20182756E+003 -2.27828735E+000   1.47161035E-004      99.41  <-- SCF
     16  -5.20183429E+003 -2.25458111E+000   1.98221559E-004     104.37  <-- SCF
     17  -5.20183777E+003 -2.25029054E+000   1.02264469E-004     109.29  <-- SCF
     18  -5.20183852E+003 -2.25038267E+000   2.20567471E-005     114.13  <-- SCF
     19  -5.20183865E+003 -2.25040736E+000   3.85826412E-006     118.92  <-- SCF
     20  -5.20183870E+003 -2.25025461E+000   1.31149125E-006     123.86  <-- SCF
     21  -5.20183876E+003 -2.24973223E+000   1.82836029E-006     128.79  <-- SCF
     22  -5.20183880E+003 -2.24926686E+000   1.30898970E-006     133.73  <-- SCF
     23  -5.20183885E+003 -2.24919039E+000   1.43242327E-006     138.41  <-- SCF
     24  -5.20183889E+003 -2.24911865E+000   1.06902278E-006     143.40  <-- SCF
     25  -5.20183891E+003 -2.24901364E+000   5.85922579E-007     148.31  <-- SCF
     26  -5.20183891E+003 -2.24899779E+000   1.61684930E-007     153.22  <-- SCF
------------------------------------------------------------------------ <-- SCF
 
Final energy, E             =  -5201.836117505     eV
Final free energy (E-TS)    =  -5201.838914454     eV
(energies not corrected for finite basis set)
 
NB est. 0K energy (E-0.5TS)      =  -5201.837515979     eV
 
 WARNING: Your unit cell might be too small to get accurate results for van der Waals
(SEDC) Total Energy Correction : -0.278927E+01 eV

Dispersion corrected final energy*, Ecor          =  -5204.625384058     eV
Dispersion corrected final free energy* (Ecor-TS) =  -5204.628181007     eV
NB dispersion corrected est. 0K energy* (Ecor-0.5TS) =  -5204.626782532     eV

Writing analysis data to 4x4.castep_bin

Writing model to 4x4.check
++++++++++++++++++++++++++++++++++++++++++++++++++++++++++++++++++++++++++++++++
+++++++++++++++++++++++ Starting Transition State Search +++++++++++++++++++++++
++++++++++++++++++++++++++++++++++++++++++++++++++++++++++++++++++++++++++++++++
 
++++++++++++++++++++++++++++++++++++++++++++++++++++++++++++++++++++++++++++++++
+++++++++++++++++++++++ Linear synchronous transit method ++++++++++++++++++++++
++++++++++++++++++++++++++++++++++++++++++++++++++++++++++++++++++++++++++++++++
 
 +++++++++++++++++++++++++++++++++++++++++++++++++++++++
 Difference vector: Fractional components 
 +++++++++++++++++++++++++++++++++++++++++++++++++++++++
    0.072718112    0.139931316    0.092173956
   -0.053636906   -0.113392614    0.096993914
   -0.000066820   -0.000356405    0.000914273
   -0.001038420   -0.001322338    0.003046288
   -0.000109543   -0.000086357    0.006420518
   -0.000129363   -0.000215511    0.007112448
   -0.000015308    0.000090834    0.007060046
   -0.000050310   -0.000029829    0.006463999
    0.000935667    0.001208603    0.003022197
   -0.000071515    0.000208703    0.000922876
    0.002150462    0.004338490   -0.005060506
   -0.000585807    0.000616977   -0.000356265
    0.001511803   -0.002685014   -0.006131831
    0.000147032   -0.000674717    0.001460134
    0.000738157    0.000583846    0.001508373
   -0.000045148   -0.000062970    0.006419755
    0.000164641    0.001185635    0.003069134
    0.000401389    0.000815322    0.004753132
   -0.000317194   -0.000279751    0.000996817
    0.001130765    0.000633457   -0.000307577
   -0.004351926   -0.002685974   -0.006048196
    0.000284212    0.000719983   -0.024159436
   -0.000524033   -0.000853504   -0.024163261
    0.004182265    0.002546349   -0.006137470
   -0.001205921   -0.000711663   -0.000282897
    0.000234349    0.000186893    0.000957486
   -0.000548163   -0.000967114    0.004788389
   -0.000291635   -0.001292694    0.003081576
   -0.000083802   -0.000054220    0.006473128
   -0.000879767   -0.000661897    0.001554656
   -0.000290523    0.000540920    0.001566395
   -0.001716780    0.002545364   -0.006061518
    0.000473127   -0.000713990   -0.000300312
   -0.002293217   -0.004503965   -0.004952300
 +++++++++++++++++++++++++++++++++++++++++++++++++++++++
 
 +++++++++++++++++++++++++++++++++++++++++++++++++++++++
 Periodic cell setup complete
 +++++++++++++++++++++++++++++++++++++++++++++++++++++++
 
------------------------------------------------------------------------ <-- SCF
SCF loop      Energy           Fermi           Energy gain       Timer   <-- SCF
                               energy          per atom          (sec)   <-- SCF
------------------------------------------------------------------------ <-- SCF
Initial  -5.20183593E+003  0.00000000E+000                       158.80  <-- SCF
      1  -5.20183892E+003 -2.24899801E+000   8.78531416E-005     163.23  <-- SCF
      2  -5.20183892E+003 -2.24899801E+000   1.96533091E-011     168.00  <-- SCF
      3  -5.20183892E+003 -2.24899598E+000   2.85600113E-008     172.59  <-- SCF
      4  -5.20183892E+003 -2.24899453E+000   2.81250909E-008     177.46  <-- SCF
------------------------------------------------------------------------ <-- SCF
 
Final energy, E             =  -5201.836123305     eV
Final free energy (E-TS)    =  -5201.838920265     eV
(energies not corrected for finite basis set)
 
NB est. 0K energy (E-0.5TS)      =  -5201.837521785     eV
 

Dispersion corrected final energy*, Ecor          =  -5204.625389858     eV
Dispersion corrected final free energy* (Ecor-TS) =  -5204.628186819     eV
NB dispersion corrected est. 0K energy* (Ecor-0.5TS) =  -5204.626788338     eV
 +++++++++++++++++++++++++++++++++++++++++++++++++++++++
 Reactant                      
 Path coordinate:                         0.00000
 Energy:                              -5204.62819 eV                            
 +++++++++++++++++++++++++++++++++++++++++++++++++++++++
 
            ++++++++++++++++++++++++++++++++++++++++++++++++++++++++++++++++++++
                             Coordinates: Fractional components
            ++++++++++++++++++++++++++++++++++++++++++++++++++++++++++++++++++++
            +  Element    Atom                                                 +
            +            Number           x          y          z              +
            ++++++++++++++++++++++++++++++++++++++++++++++++++++++++++++++++++++
            +H             1          0.498634   0.246799   0.578152           +
            +H             2          0.668851   0.587175   0.578124           +
            +C             1          0.166589   0.083705   0.496900           +
            +C             2          0.000984   0.001366   0.494732           +
            +C             3          0.166611   0.333544   0.491397           +
            +C             4          0.000016   0.250233   0.490662           +
            +C             5          0.166560   0.583542   0.490690           +
            +C             6         -0.000041   0.500193   0.491365           +
            +C             7          0.165658   0.832451   0.494770           +
            +C             8          0.000037   0.750051   0.496885           +
            +C             9          0.414473   0.078975   0.502886           +
            +C            10          0.250502  -0.000586   0.498157           +
            +C            11          0.415134   0.336167   0.504076           +
            +C            12          0.249740   0.250702   0.496380           +
            +C            13          0.415968   0.583106   0.496353           +
            +C            14          0.249970   0.500237   0.491404           +
            +C            15          0.416519   0.832518   0.494729           +
            +C            16          0.249555   0.749497   0.493017           +
            +C            17          0.667160   0.083711   0.496821           +
            +C            18          0.498974  -0.000574   0.498104           +
            +C            19          0.671200   0.336231   0.503978           +
            +C            20          0.499757   0.249327   0.522133           +
            +C            21          0.667402   0.584553   0.522105           +
            +C            22          0.495912   0.497679   0.504056           +
            +C            23          0.668073   0.834448   0.498089           +
            +C            24          0.499915   0.750193   0.496849           +
            +C            25          0.917351   0.084436   0.492971           +
            +C            26          0.750511   0.001368   0.494700           +
            +C            27          0.916931   0.333667   0.491342           +
            +C            28          0.751081   0.250786   0.496283           +
            +C            29          0.917175   0.583184   0.496313           +
            +C            30          0.751932   0.497718   0.503984           +
            +C            31          0.916369   0.834398   0.498102           +
            +C            32          0.752514   0.754847   0.502835           +
            ++++++++++++++++++++++++++++++++++++++++++++++++++++++++++++++++++++
                           Forces: Cartesian components: eV/A                          
            ++++++++++++++++++++++++++++++++++++++++++++++++++++++++++++++++++++
            +  Element    Atom                                                 +
            +            Number           x          y          z              +
            ++++++++++++++++++++++++++++++++++++++++++++++++++++++++++++++++++++
            +H             1          0.000112   0.001114   0.001160           +
            +H             2         -0.000167  -0.000084  -0.000425           +
            +C             1         -0.001851  -0.002374  -0.002841           +
            +C             2          0.002356  -0.000035  -0.002249           +
            +C             3         -0.002342   0.000695   0.001996           +
            +C             4          0.000428   0.002471  -0.001302           +
            +C             5         -0.000739  -0.000012  -0.001058           +
            +C             6          0.002430   0.000205   0.000937           +
            +C             7          0.000875   0.003098  -0.000912           +
            +C             8          0.000799   0.000495  -0.002956           +
            +C             9          0.000120  -0.006093  -0.002236           +
            +C            10          0.001350   0.006262   0.000217           +
            +C            11         -0.001879  -0.001079   0.001993           +
            +C            12          0.004471   0.003042   0.001563           +
            +C            13          0.002100  -0.002499   0.001513           +
            +C            14         -0.001488   0.000466   0.000894           +
            +C            15         -0.001900   0.003490  -0.000617           +
            +C            16          0.000625   0.001359   0.000248           +
            +C            17          0.000871  -0.001965  -0.003382           +
            +C            18         -0.001492   0.005499   0.000256           +
            +C            19          0.001481  -0.000922   0.002165           +
            +C            20         -0.000261   0.006682  -0.001079           +
            +C            21         -0.000136  -0.002627   0.001876           +
            +C            22          0.002043  -0.001931   0.002290           +
            +C            23          0.004225  -0.003734  -0.000003           +
            +C            24          0.000114   0.000873  -0.003568           +
            +C            25         -0.000439  -0.007869   0.001617           +
            +C            26         -0.001428  -0.000791  -0.002066           +
            +C            27          0.001239   0.000118   0.002017           +
            +C            28         -0.004061   0.002954   0.001691           +
            +C            29         -0.002298  -0.002424   0.001169           +
            +C            30         -0.001362  -0.001937   0.001766           +
            +C            31         -0.003839  -0.003699  -0.000142           +
            +C            32          0.000041   0.001248  -0.000531           +
            ++++++++++++++++++++++++++++++++++++++++++++++++++++++++++++++++++++
 
------------------------------------------------------------------------ <-- SCF
SCF loop      Energy           Fermi           Energy gain       Timer   <-- SCF
                               energy          per atom          (sec)   <-- SCF
------------------------------------------------------------------------ <-- SCF
Initial  -5.02963320E+003  0.00000000E+000                       179.15  <-- SCF
      1  -5.17809196E+003 -1.54280421E+000   4.36643419E+000     184.36  <-- SCF
      2  -5.20561372E+003 -2.25867300E+000   8.09463616E-001     189.24  <-- SCF
      3  -5.20360668E+003 -2.26841032E+000  -5.90306297E-002     195.30  <-- SCF
      4  -5.20367437E+003 -2.29111516E+000   1.99102945E-003     202.75  <-- SCF
      5  -5.20367361E+003 -2.30727961E+000  -2.25117443E-005     209.18  <-- SCF
      6  -5.20366804E+003 -2.31812721E+000  -1.63685380E-004     215.50  <-- SCF
      7  -5.20366581E+003 -2.33227602E+000  -6.57746262E-005     221.31  <-- SCF
      8  -5.20366643E+003 -2.34871901E+000   1.84369464E-005     226.87  <-- SCF
      9  -5.20366850E+003 -2.36271029E+000   6.08330882E-005     232.05  <-- SCF
     10  -5.20366915E+003 -2.37078520E+000   1.91223482E-005     237.33  <-- SCF
     11  -5.20366913E+003 -2.37948163E+000  -6.69402967E-007     242.55  <-- SCF
     12  -5.20366880E+003 -2.38787848E+000  -9.84106225E-006     247.81  <-- SCF
     13  -5.20366911E+003 -2.39423794E+000   9.21393257E-006     253.00  <-- SCF
     14  -5.20366964E+003 -2.39816886E+000   1.55764078E-005     258.03  <-- SCF
     15  -5.20367011E+003 -2.39960658E+000   1.39492972E-005     262.84  <-- SCF
     16  -5.20367052E+003 -2.39997720E+000   1.18458853E-005     267.64  <-- SCF
     17  -5.20367072E+003 -2.39994075E+000   6.04519939E-006     272.50  <-- SCF
     18  -5.20367081E+003 -2.39989667E+000   2.72697775E-006     277.39  <-- SCF
     19  -5.20367086E+003 -2.39997286E+000   1.34915358E-006     282.23  <-- SCF
     20  -5.20367087E+003 -2.40008263E+000   4.40626575E-007     287.20  <-- SCF
     21  -5.20367088E+003 -2.40033446E+000   7.97108417E-008     292.10  <-- SCF
------------------------------------------------------------------------ <-- SCF
 
Final energy, E             =  -5203.667008358     eV
Final free energy (E-TS)    =  -5203.670877224     eV
(energies not corrected for finite basis set)
 
NB est. 0K energy (E-0.5TS)      =  -5203.668942791     eV
 
(SEDC) Total Energy Correction : -0.271939E+01 eV

Dispersion corrected final energy*, Ecor          =  -5206.386397479     eV
Dispersion corrected final free energy* (Ecor-TS) =  -5206.390266345     eV
NB dispersion corrected est. 0K energy* (Ecor-0.5TS) =  -5206.388331912     eV
 +++++++++++++++++++++++++++++++++++++++++++++++++++++++
 Product                       
 Path coordinate:                         1.00000
 Energy:                              -5206.39027 eV                            
 +++++++++++++++++++++++++++++++++++++++++++++++++++++++
 
            ++++++++++++++++++++++++++++++++++++++++++++++++++++++++++++++++++++
                             Coordinates: Fractional components
            ++++++++++++++++++++++++++++++++++++++++++++++++++++++++++++++++++++
            +  Element    Atom                                                 +
            +            Number           x          y          z              +
            ++++++++++++++++++++++++++++++++++++++++++++++++++++++++++++++++++++
            +H             1          0.571353   0.386730   0.670326           +
            +H             2          0.615214   0.473783   0.675117           +
            +C             1          0.166522   0.083348   0.497814           +
            +C             2         -0.000054   0.000044   0.497778           +
            +C             3          0.166502   0.333458   0.497817           +
            +C             4         -0.000113   0.250017   0.497774           +
            +C             5          0.166545   0.583633   0.497750           +
            +C             6         -0.000091   0.500163   0.497829           +
            +C             7          0.166594   0.833659   0.497793           +
            +C             8         -0.000035   0.750260   0.497808           +
            +C             9          0.416624   0.083314   0.497826           +
            +C            10          0.249916   0.000031   0.497801           +
            +C            11          0.416645   0.333482   0.497944           +
            +C            12          0.249887   0.250027   0.497840           +
            +C            13          0.416707   0.583690   0.497862           +
            +C            14          0.249925   0.500174   0.497823           +
            +C            15          0.416684   0.833704   0.497798           +
            +C            16          0.249957   0.750312   0.497771           +
            +C            17          0.666843   0.083432   0.497818           +
            +C            18          0.500104   0.000059   0.497796           +
            +C            19          0.666848   0.333545   0.497929           +
            +C            20          0.500041   0.250047   0.497974           +
            +C            21          0.666878   0.583700   0.497941           +
            +C            22          0.500094   0.500225   0.497918           +
            +C            23          0.666867   0.833736   0.497806           +
            +C            24          0.500149   0.750380   0.497807           +
            +C            25          0.916803   0.083469   0.497759           +
            +C            26          0.750219   0.000075   0.497781           +
            +C            27          0.916848   0.333612   0.497815           +
            +C            28          0.750201   0.250124   0.497838           +
            +C            29          0.916885   0.583725   0.497880           +
            +C            30          0.750215   0.500264   0.497922           +
            +C            31          0.916843   0.833684   0.497801           +
            +C            32          0.750221   0.750343   0.497883           +
            ++++++++++++++++++++++++++++++++++++++++++++++++++++++++++++++++++++
                           Forces: Cartesian components: eV/A                          
            ++++++++++++++++++++++++++++++++++++++++++++++++++++++++++++++++++++
            +  Element    Atom                                                 +
            +            Number           x          y          z              +
            ++++++++++++++++++++++++++++++++++++++++++++++++++++++++++++++++++++
            +H             1          0.000840  -0.004744   0.010265           +
            +H             2         -0.000126   0.004699   0.006281           +
            +C             1         -0.010205   0.008117  -0.003661           +
            +C             2          0.011633   0.001404  -0.000809           +
            +C             3         -0.001254  -0.005001  -0.002356           +
            +C             4         -0.002945   0.002787   0.001857           +
            +C             5         -0.000032  -0.007619   0.013194           +
            +C             6          0.013943   0.001835  -0.004515           +
            +C             7         -0.022198  -0.006425  -0.004638           +
            +C             8          0.016201   0.007582   0.004835           +
            +C             9         -0.015029   0.013100   0.009343           +
            +C            10          0.021360  -0.014653   0.001719           +
            +C            11         -0.009773  -0.000558  -0.004893           +
            +C            12          0.001962  -0.000734   0.005507           +
            +C            13         -0.005522  -0.012497  -0.004017           +
            +C            14         -0.009066   0.015914  -0.005074           +
            +C            15          0.007968  -0.009677  -0.006772           +
            +C            16          0.008086   0.015357   0.000933           +
            +C            17         -0.012791  -0.012539  -0.005178           +
            +C            18          0.007523  -0.005376   0.004010           +
            +C            19         -0.019280  -0.003538  -0.001291           +
            +C            20          0.023233  -0.002098  -0.015585           +
            +C            21         -0.018447  -0.011629  -0.006239           +
            +C            22          0.008993   0.011617   0.002360           +
            +C            23         -0.011173  -0.014233   0.004673           +
            +C            24         -0.001840   0.017259   0.003870           +
            +C            25         -0.001400  -0.001706   0.003349           +
            +C            26          0.000401   0.013020  -0.000295           +
            +C            27         -0.003712  -0.012469  -0.001357           +
            +C            28          0.024129  -0.002479   0.004290           +
            +C            29         -0.021394  -0.004957  -0.007360           +
            +C            30          0.030211   0.007842   0.001248           +
            +C            31         -0.025473  -0.006617   0.005605           +
            +C            32          0.015178   0.019018  -0.009300           +
            ++++++++++++++++++++++++++++++++++++++++++++++++++++++++++++++++++++
 
 +++++++++++++++++++++++++++++++++++++++++++++++++++++++
 LST maximum bracketing from reactant
 +++++++++++++++++++++++++++++++++++++++++++++++++++++++
 
------------------------------------------------------------------------ <-- SCF
SCF loop      Energy           Fermi           Energy gain       Timer   <-- SCF
                               energy          per atom          (sec)   <-- SCF
------------------------------------------------------------------------ <-- SCF
Initial  -5.05458310E+003  0.00000000E+000                       296.99  <-- SCF
      1  -5.17677699E+003 -2.05960249E+000   3.59393788E+000     302.10  <-- SCF
      2  -5.20028171E+003 -2.49939151E+000   6.91315527E-001     306.82  <-- SCF
      3  -5.19939771E+003 -2.46002553E+000  -2.60001438E-002     313.33  <-- SCF
      4  -5.19932264E+003 -2.48929928E+000  -2.20796562E-003     319.45  <-- SCF
      5  -5.19934537E+003 -2.48463424E+000   6.68503071E-004     325.73  <-- SCF
      6  -5.19936012E+003 -2.48754830E+000   4.33858874E-004     332.80  <-- SCF
      7  -5.19936372E+003 -2.48983187E+000   1.05815665E-004     338.38  <-- SCF
      8  -5.19936499E+003 -2.49225380E+000   3.74010315E-005     343.50  <-- SCF
      9  -5.19936552E+003 -2.49490889E+000   1.56383742E-005     348.51  <-- SCF
     10  -5.19936581E+003 -2.49717123E+000   8.45071053E-006     353.54  <-- SCF
     11  -5.19936606E+003 -2.50044695E+000   7.39527215E-006     358.50  <-- SCF
     12  -5.19936605E+003 -2.50379492E+000  -2.68577345E-007     363.44  <-- SCF
     13  -5.19936592E+003 -2.50741957E+000  -3.81283950E-006     368.49  <-- SCF
     14  -5.19936585E+003 -2.51151558E+000  -2.03323662E-006     373.50  <-- SCF
     15  -5.19936588E+003 -2.51700613E+000   1.02289086E-006     378.32  <-- SCF
     16  -5.19936598E+003 -2.51974388E+000   2.94761005E-006     383.13  <-- SCF
     17  -5.19936606E+003 -2.52069048E+000   2.13770326E-006     388.02  <-- SCF
     18  -5.19936610E+003 -2.52106414E+000   1.32146676E-006     392.96  <-- SCF
     19  -5.19936612E+003 -2.52114037E+000   4.62414975E-007     397.97  <-- SCF
     20  -5.19936613E+003 -2.52113667E+000   2.46280120E-007     402.99  <-- SCF
------------------------------------------------------------------------ <-- SCF
 
Final energy, E             =  -5199.360657301     eV
Final free energy (E-TS)    =  -5199.366126544     eV
(energies not corrected for finite basis set)
 
NB est. 0K energy (E-0.5TS)      =  -5199.363391923     eV
 
(SEDC) Total Energy Correction : -0.280388E+01 eV

Dispersion corrected final energy*, Ecor          =  -5202.164532362     eV
Dispersion corrected final free energy* (Ecor-TS) =  -5202.170001604     eV
NB dispersion corrected est. 0K energy* (Ecor-0.5TS) =  -5202.167266983     eV
 +++++++++++++++++++++++++++++++++++++++++++++++++++++++
 Path coordinate:                         0.22184
 Energy:                              -5202.17000 eV                            
 +++++++++++++++++++++++++++++++++++++++++++++++++++++++
 
------------------------------------------------------------------------ <-- SCF
SCF loop      Energy           Fermi           Energy gain       Timer   <-- SCF
                               energy          per atom          (sec)   <-- SCF
------------------------------------------------------------------------ <-- SCF
Initial  -5.18604361E+003  0.00000000E+000                       407.89  <-- SCF
      1  -5.19686636E+003 -2.49010950E+000   3.18316300E-001     412.72  <-- SCF
      2  -5.19849668E+003 -2.66943909E+000   4.79505229E-002     418.77  <-- SCF
      3  -5.19835734E+003 -2.63838926E+000  -4.09819385E-003     424.93  <-- SCF
      4  -5.19835659E+003 -2.65226971E+000  -2.22629402E-005     432.10  <-- SCF
      5  -5.19835499E+003 -2.65676949E+000  -4.69743574E-005     438.24  <-- SCF
      6  -5.19835567E+003 -2.66291958E+000   2.01276845E-005     444.13  <-- SCF
      7  -5.19835662E+003 -2.66813277E+000   2.79302684E-005     449.40  <-- SCF
      8  -5.19835812E+003 -2.67863761E+000   4.41249877E-005     454.79  <-- SCF
      9  -5.19835881E+003 -2.68620598E+000   2.01669031E-005     459.98  <-- SCF
     10  -5.19835904E+003 -2.69877369E+000   6.91590247E-006     465.15  <-- SCF
     11  -5.19835897E+003 -2.70790385E+000  -2.13637152E-006     470.27  <-- SCF
     12  -5.19835907E+003 -2.71634403E+000   2.98505672E-006     475.46  <-- SCF
     13  -5.19835951E+003 -2.72114293E+000   1.27352066E-005     480.57  <-- SCF
     14  -5.19836005E+003 -2.72335897E+000   1.59541865E-005     485.59  <-- SCF
     15  -5.19836044E+003 -2.72429666E+000   1.14193189E-005     490.51  <-- SCF
     16  -5.19836066E+003 -2.72449247E+000   6.67430366E-006     495.44  <-- SCF
     17  -5.19836081E+003 -2.72461133E+000   4.34090371E-006     500.42  <-- SCF
     18  -5.19836087E+003 -2.72485821E+000   1.85641472E-006     505.37  <-- SCF
     19  -5.19836089E+003 -2.72507412E+000   5.97446197E-007     510.27  <-- SCF
     20  -5.19836090E+003 -2.72534033E+000   6.82268036E-008     515.22  <-- SCF
------------------------------------------------------------------------ <-- SCF
 
Final energy, E             =  -5198.351315324     eV
Final free energy (E-TS)    =  -5198.360896451     eV
(energies not corrected for finite basis set)
 
NB est. 0K energy (E-0.5TS)      =  -5198.356105887     eV
 
(SEDC) Total Energy Correction : -0.279683E+01 eV

Dispersion corrected final energy*, Ecor          =  -5201.148140540     eV
Dispersion corrected final free energy* (Ecor-TS) =  -5201.157721667     eV
NB dispersion corrected est. 0K energy* (Ecor-0.5TS) =  -5201.152931103     eV
 +++++++++++++++++++++++++++++++++++++++++++++++++++++++
 Path coordinate:                         0.42973
 Energy:                              -5201.15772 eV                            
 +++++++++++++++++++++++++++++++++++++++++++++++++++++++
 
------------------------------------------------------------------------ <-- SCF
SCF loop      Energy           Fermi           Energy gain       Timer   <-- SCF
                               energy          per atom          (sec)   <-- SCF
------------------------------------------------------------------------ <-- SCF
Initial  -5.17797402E+003  0.00000000E+000                       519.92  <-- SCF
      1  -5.19759752E+003 -2.60175313E+000   5.77161791E-001     524.73  <-- SCF
      2  -5.19974390E+003 -2.65685212E+000   6.31288200E-002     530.51  <-- SCF
      3  -5.19961248E+003 -2.62481003E+000  -3.86551064E-003     536.69  <-- SCF
      4  -5.19961520E+003 -2.60740513E+000   8.02522222E-005     544.04  <-- SCF
      5  -5.19961331E+003 -2.59569716E+000  -5.56783360E-005     550.27  <-- SCF
      6  -5.19961183E+003 -2.58733331E+000  -4.36098631E-005     555.76  <-- SCF
      7  -5.19961064E+003 -2.57822751E+000  -3.49131284E-005     561.16  <-- SCF
      8  -5.19960960E+003 -2.56797184E+000  -3.06530333E-005     566.40  <-- SCF
      9  -5.19960930E+003 -2.55953945E+000  -8.69533279E-006     571.55  <-- SCF
     10  -5.19960936E+003 -2.55061533E+000   1.51910960E-006     576.69  <-- SCF
     11  -5.19960966E+003 -2.54365958E+000   9.08476782E-006     581.85  <-- SCF
     12  -5.19960999E+003 -2.53713222E+000   9.71876853E-006     587.00  <-- SCF
     13  -5.19961079E+003 -2.53320457E+000   2.33867002E-005     592.08  <-- SCF
     14  -5.19961151E+003 -2.53160955E+000   2.11180572E-005     597.10  <-- SCF
     15  -5.19961208E+003 -2.53089730E+000   1.67494559E-005     602.02  <-- SCF
     16  -5.19961228E+003 -2.53050224E+000   5.87163859E-006     606.97  <-- SCF
     17  -5.19961237E+003 -2.53045050E+000   2.73640174E-006     611.84  <-- SCF
     18  -5.19961241E+003 -2.53035245E+000   1.09526565E-006     616.82  <-- SCF
     19  -5.19961243E+003 -2.53019514E+000   7.45821674E-007     621.72  <-- SCF
     20  -5.19961245E+003 -2.52996478E+000   4.13881401E-007     626.64  <-- SCF
     21  -5.19961245E+003 -2.52965267E+000   2.11956070E-007     631.43  <-- SCF
------------------------------------------------------------------------ <-- SCF
 
Final energy, E             =  -5199.607361276     eV
Final free energy (E-TS)    =  -5199.612454041     eV
(energies not corrected for finite basis set)
 
NB est. 0K energy (E-0.5TS)      =  -5199.609907659     eV
 
(SEDC) Total Energy Correction : -0.277483E+01 eV

Dispersion corrected final energy*, Ecor          =  -5202.382187867     eV
Dispersion corrected final free energy* (Ecor-TS) =  -5202.387280632     eV
NB dispersion corrected est. 0K energy* (Ecor-0.5TS) =  -5202.384734250     eV
 +++++++++++++++++++++++++++++++++++++++++++++++++++++++
 Path coordinate:                         0.62962
 Energy:                              -5202.38728 eV                            
 +++++++++++++++++++++++++++++++++++++++++++++++++++++++
 
 +++++++++++++++++++++++++++++++++++++++++++++++++++++++
 LST maximum bracketing from reactant successful
 Cumulative number of energy/gradient calls :     5
 +++++++++++++++++++++++++++++++++++++++++++++++++++++++
 
 +++++++++++++++++++++++++++++++++++++++++++++++++++++++
 Commencing maximum search
 +++++++++++++++++++++++++++++++++++++++++++++++++++++++
 
------------------------------------------------------------------------ <-- SCF
SCF loop      Energy           Fermi           Energy gain       Timer   <-- SCF
                               energy          per atom          (sec)   <-- SCF
------------------------------------------------------------------------ <-- SCF
Initial  -5.17184206E+003  0.00000000E+000                       636.38  <-- SCF
      1  -5.19602835E+003 -2.47597382E+000   7.11361515E-001     641.20  <-- SCF
      2  -5.19853644E+003 -2.72535119E+000   7.37673540E-002     646.87  <-- SCF
      3  -5.19833900E+003 -2.64829229E+000  -5.80727857E-003     653.17  <-- SCF
      4  -5.19833606E+003 -2.66648391E+000  -8.64887102E-005     659.28  <-- SCF
      5  -5.19833823E+003 -2.67054662E+000   6.39659075E-005     665.54  <-- SCF
      6  -5.19833886E+003 -2.67431869E+000   1.83484815E-005     671.52  <-- SCF
      7  -5.19833971E+003 -2.67961937E+000   2.51809029E-005     676.74  <-- SCF
      8  -5.19834085E+003 -2.68870648E+000   3.36100541E-005     682.05  <-- SCF
      9  -5.19834145E+003 -2.69839638E+000   1.74611185E-005     687.30  <-- SCF
     10  -5.19834162E+003 -2.70630087E+000   5.17143911E-006     692.32  <-- SCF
     11  -5.19834163E+003 -2.71433661E+000   2.51860431E-007     697.33  <-- SCF
     12  -5.19834175E+003 -2.71975922E+000   3.31039524E-006     702.39  <-- SCF
     13  -5.19834198E+003 -2.72360187E+000   6.89808572E-006     707.46  <-- SCF
     14  -5.19834237E+003 -2.72542893E+000   1.14483535E-005     712.48  <-- SCF
     15  -5.19834265E+003 -2.72604891E+000   8.25656527E-006     717.40  <-- SCF
     16  -5.19834284E+003 -2.72631470E+000   5.67721174E-006     722.25  <-- SCF
     17  -5.19834290E+003 -2.72649836E+000   1.78507105E-006     727.23  <-- SCF
     18  -5.19834294E+003 -2.72664826E+000   1.05135864E-006     732.14  <-- SCF
     19  -5.19834295E+003 -2.72682608E+000   4.56741401E-007     737.06  <-- SCF
     20  -5.19834296E+003 -2.72714551E+000   1.77713000E-008     741.95  <-- SCF
------------------------------------------------------------------------ <-- SCF
 
Final energy, E             =  -5198.333273178     eV
Final free energy (E-TS)    =  -5198.342955144     eV
(energies not corrected for finite basis set)
 
NB est. 0K energy (E-0.5TS)      =  -5198.338114161     eV
 
(SEDC) Total Energy Correction : -0.279768E+01 eV

Dispersion corrected final energy*, Ecor          =  -5201.130957102     eV
Dispersion corrected final free energy* (Ecor-TS) =  -5201.140639068     eV
NB dispersion corrected est. 0K energy* (Ecor-0.5TS) =  -5201.135798085     eV
 +++++++++++++++++++++++++++++++++++++++++++++++++++++++
 Path coordinate:                         0.41984
 Energy:                              -5201.14064 eV                            
 +++++++++++++++++++++++++++++++++++++++++++++++++++++++
 
------------------------------------------------------------------------ <-- SCF
SCF loop      Energy           Fermi           Energy gain       Timer   <-- SCF
                               energy          per atom          (sec)   <-- SCF
------------------------------------------------------------------------ <-- SCF
Initial  -5.19489109E+003  0.00000000E+000                       746.61  <-- SCF
      1  -5.19826067E+003 -2.73043834E+000   9.91051241E-002     751.30  <-- SCF
      2  -5.19837678E+003 -2.73627653E+000   3.41496273E-003     757.88  <-- SCF
      3  -5.19836152E+003 -2.72508593E+000  -4.48813408E-004     764.17  <-- SCF
      4  -5.19836144E+003 -2.72492611E+000  -2.21568179E-006     770.48  <-- SCF
      5  -5.19836119E+003 -2.72244780E+000  -7.44644282E-006     776.55  <-- SCF
      6  -5.19836106E+003 -2.72113616E+000  -3.84320418E-006     781.60  <-- SCF
      7  -5.19836096E+003 -2.72012360E+000  -2.92637210E-006     786.57  <-- SCF
      8  -5.19836086E+003 -2.71798126E+000  -2.74933935E-006     791.59  <-- SCF
      9  -5.19836088E+003 -2.71666678E+000   4.61261299E-007     796.57  <-- SCF
     10  -5.19836093E+003 -2.71476795E+000   1.55463791E-006     801.47  <-- SCF
     11  -5.19836096E+003 -2.71284530E+000   8.77546431E-007     806.51  <-- SCF
     12  -5.19836099E+003 -2.71073731E+000   8.85752029E-007     811.46  <-- SCF
     13  -5.19836113E+003 -2.70915609E+000   4.15684144E-006     816.52  <-- SCF
     14  -5.19836132E+003 -2.70831833E+000   5.58224393E-006     821.55  <-- SCF
     15  -5.19836142E+003 -2.70810014E+000   2.81340588E-006     826.53  <-- SCF
     16  -5.19836148E+003 -2.70802360E+000   1.81636412E-006     831.37  <-- SCF
     17  -5.19836151E+003 -2.70801836E+000   8.00758928E-007     836.27  <-- SCF
     18  -5.19836152E+003 -2.70801643E+000   3.73884665E-007     841.13  <-- SCF
     19  -5.19836153E+003 -2.70798475E+000   2.22586782E-007     846.05  <-- SCF
------------------------------------------------------------------------ <-- SCF
 
Final energy, E             =  -5198.352363977     eV
Final free energy (E-TS)    =  -5198.361528520     eV
(energies not corrected for finite basis set)
 
NB est. 0K energy (E-0.5TS)      =  -5198.356946249     eV
 
(SEDC) Total Energy Correction : -0.280360E+01 eV

Dispersion corrected final energy*, Ecor          =  -5201.155961988     eV
Dispersion corrected final free energy* (Ecor-TS) =  -5201.165126531     eV
NB dispersion corrected est. 0K energy* (Ecor-0.5TS) =  -5201.160544259     eV
 +++++++++++++++++++++++++++++++++++++++++++++++++++++++
 Path coordinate:                         0.34508
 Energy:                              -5201.16513 eV                            
 +++++++++++++++++++++++++++++++++++++++++++++++++++++++
 
------------------------------------------------------------------------ <-- SCF
SCF loop      Energy           Fermi           Energy gain       Timer   <-- SCF
                               energy          per atom          (sec)   <-- SCF
------------------------------------------------------------------------ <-- SCF
Initial  -5.19488036E+003  0.00000000E+000                       850.98  <-- SCF
      1  -5.19824458E+003 -2.70239543E+000   9.89475135E-002     855.68  <-- SCF
      2  -5.19833870E+003 -2.70608593E+000   2.76840670E-003     862.39  <-- SCF
      3  -5.19832691E+003 -2.70926789E+000  -3.46670570E-004     868.62  <-- SCF
      4  -5.19832736E+003 -2.71077760E+000   1.32094474E-005     875.56  <-- SCF
      5  -5.19832720E+003 -2.71194376E+000  -4.88859169E-006     880.98  <-- SCF
      6  -5.19832713E+003 -2.71285267E+000  -1.97820626E-006     886.00  <-- SCF
      7  -5.19832712E+003 -2.71362395E+000  -2.23401962E-007     890.97  <-- SCF
      8  -5.19832721E+003 -2.71549570E+000   2.50611912E-006     895.93  <-- SCF
      9  -5.19832730E+003 -2.71659575E+000   2.64689333E-006     900.91  <-- SCF
     10  -5.19832740E+003 -2.71843421E+000   3.15440440E-006     905.74  <-- SCF
     11  -5.19832745E+003 -2.71995623E+000   1.43561463E-006     910.80  <-- SCF
     12  -5.19832750E+003 -2.72172320E+000   1.25004956E-006     915.86  <-- SCF
     13  -5.19832755E+003 -2.72280730E+000   1.49840052E-006     920.90  <-- SCF
     14  -5.19832761E+003 -2.72351597E+000   1.70747428E-006     925.88  <-- SCF
     15  -5.19832765E+003 -2.72367449E+000   1.37747593E-006     930.79  <-- SCF
     16  -5.19832768E+003 -2.72375255E+000   8.14936152E-007     935.68  <-- SCF
     17  -5.19832769E+003 -2.72377721E+000   3.49912382E-007     940.64  <-- SCF
     18  -5.19832770E+003 -2.72379035E+000   1.91292367E-007     945.56  <-- SCF
------------------------------------------------------------------------ <-- SCF
 
Final energy, E             =  -5198.317939246     eV
Final free energy (E-TS)    =  -5198.327698017     eV
(energies not corrected for finite basis set)
 
NB est. 0K energy (E-0.5TS)      =  -5198.322818631     eV
 
(SEDC) Total Energy Correction : -0.280001E+01 eV

Dispersion corrected final energy*, Ecor          =  -5201.117951406     eV
Dispersion corrected final free energy* (Ecor-TS) =  -5201.127710177     eV
NB dispersion corrected est. 0K energy* (Ecor-0.5TS) =  -5201.122830792     eV
 +++++++++++++++++++++++++++++++++++++++++++++++++++++++
 Path coordinate:                         0.38942
 Energy:                              -5201.12771 eV                            
 +++++++++++++++++++++++++++++++++++++++++++++++++++++++
 
------------------------------------------------------------------------ <-- SCF
SCF loop      Energy           Fermi           Energy gain       Timer   <-- SCF
                               energy          per atom          (sec)   <-- SCF
------------------------------------------------------------------------ <-- SCF
Initial  -5.19831465E+003  0.00000000E+000                       950.43  <-- SCF
      1  -5.19832639E+003 -2.72414226E+000   3.45287016E-004     955.47  <-- SCF
      2  -5.19832662E+003 -2.72414901E+000   6.79156501E-006     962.15  <-- SCF
      3  -5.19832645E+003 -2.72505383E+000  -5.00197757E-006     968.04  <-- SCF
      4  -5.19832645E+003 -2.72500017E+000   9.76767186E-008     972.91  <-- SCF
      5  -5.19832645E+003 -2.72517697E+000  -1.23129255E-007     977.88  <-- SCF
------------------------------------------------------------------------ <-- SCF
 
Final energy, E             =  -5198.316666633     eV
Final free energy (E-TS)    =  -5198.326445845     eV
(energies not corrected for finite basis set)
 
NB est. 0K energy (E-0.5TS)      =  -5198.321556239     eV
 
(SEDC) Total Energy Correction : -0.279921E+01 eV

Dispersion corrected final energy*, Ecor          =  -5201.115880126     eV
Dispersion corrected final free energy* (Ecor-TS) =  -5201.125659338     eV
NB dispersion corrected est. 0K energy* (Ecor-0.5TS) =  -5201.120769732     eV
 +++++++++++++++++++++++++++++++++++++++++++++++++++++++
 Path coordinate:                         0.39804
 Energy:                              -5201.12566 eV                            
 +++++++++++++++++++++++++++++++++++++++++++++++++++++++
 
------------------------------------------------------------------------ <-- SCF
SCF loop      Energy           Fermi           Energy gain       Timer   <-- SCF
                               energy          per atom          (sec)   <-- SCF
------------------------------------------------------------------------ <-- SCF
Initial  -5.19832499E+003  0.00000000E+000                       982.77  <-- SCF
      1  -5.19832638E+003 -2.72525850E+000   4.10083552E-005     988.22  <-- SCF
      2  -5.19832638E+003 -2.72525857E+000   7.40789404E-008     992.47  <-- SCF
      3  -5.19832638E+003 -2.72521851E+000  -8.76955217E-008     997.36  <-- SCF
      4  -5.19832638E+003 -2.72529068E+000   1.27667122E-008    1002.23  <-- SCF
------------------------------------------------------------------------ <-- SCF
 
Final energy, E             =  -5198.316605609     eV
Final free energy (E-TS)    =  -5198.326381456     eV
(energies not corrected for finite basis set)
 
NB est. 0K energy (E-0.5TS)      =  -5198.321493532     eV
 
(SEDC) Total Energy Correction : -0.279933E+01 eV

Dispersion corrected final energy*, Ecor          =  -5201.115930861     eV
Dispersion corrected final free energy* (Ecor-TS) =  -5201.125706709     eV
NB dispersion corrected est. 0K energy* (Ecor-0.5TS) =  -5201.120818785     eV
 +++++++++++++++++++++++++++++++++++++++++++++++++++++++
 Path coordinate:                         0.39698
 Energy:                              -5201.12571 eV                            
 +++++++++++++++++++++++++++++++++++++++++++++++++++++++
 
------------------------------------------------------------------------ <-- SCF
SCF loop      Energy           Fermi           Energy gain       Timer   <-- SCF
                               energy          per atom          (sec)   <-- SCF
------------------------------------------------------------------------ <-- SCF
Initial  -5.19455985E+003  0.00000000E+000                      1006.82  <-- SCF
      1  -5.19815436E+003 -2.73271004E+000   1.05720960E-001    1011.60  <-- SCF
      2  -5.19829102E+003 -2.73882964E+000   4.01942449E-003    1018.34  <-- SCF
      3  -5.19827749E+003 -2.73470434E+000  -3.97822300E-004    1024.55  <-- SCF
      4  -5.19827870E+003 -2.73431564E+000   3.56559526E-005    1031.46  <-- SCF
      5  -5.19827870E+003 -2.73336295E+000  -2.76761470E-007    1036.69  <-- SCF
      6  -5.19827867E+003 -2.73293786E+000  -6.69000984E-007    1041.71  <-- SCF
------------------------------------------------------------------------ <-- SCF
 
Final energy, E             =  -5198.268995300     eV
Final free energy (E-TS)    =  -5198.278672497     eV
(energies not corrected for finite basis set)
 
NB est. 0K energy (E-0.5TS)      =  -5198.273833899     eV
 
(SEDC) Total Energy Correction : -0.280363E+01 eV

Dispersion corrected final energy*, Ecor          =  -5201.072624724     eV
Dispersion corrected final free energy* (Ecor-TS) =  -5201.082301921     eV
NB dispersion corrected est. 0K energy* (Ecor-0.5TS) =  -5201.077463322     eV
 +++++++++++++++++++++++++++++++++++++++++++++++++++++++
 Path coordinate:                         0.37139
 Energy:                              -5201.08230 eV                            
 +++++++++++++++++++++++++++++++++++++++++++++++++++++++
 
------------------------------------------------------------------------ <-- SCF
SCF loop      Energy           Fermi           Energy gain       Timer   <-- SCF
                               energy          per atom          (sec)   <-- SCF
------------------------------------------------------------------------ <-- SCF
Initial  -5.19363788E+003  0.00000000E+000                      1046.62  <-- SCF
      1  -5.19823253E+003 -2.70927255E+000   1.35136850E-001    1051.39  <-- SCF
      2  -5.19838015E+003 -2.71560693E+000   4.34156562E-003    1058.03  <-- SCF
      3  -5.19836384E+003 -2.71462144E+000  -4.79620448E-004    1064.18  <-- SCF
      4  -5.19836531E+003 -2.71434821E+000   4.33342184E-005    1071.32  <-- SCF
      5  -5.19836534E+003 -2.71405402E+000   7.39322070E-007    1076.37  <-- SCF
      6  -5.19836533E+003 -2.71385616E+000  -3.17201110E-007    1081.37  <-- SCF
------------------------------------------------------------------------ <-- SCF
 
Final energy, E             =  -5198.355840708     eV
Final free energy (E-TS)    =  -5198.365328435     eV
(energies not corrected for finite basis set)
 
NB est. 0K energy (E-0.5TS)      =  -5198.360584572     eV
 
(SEDC) Total Energy Correction : -0.280263E+01 eV

Dispersion corrected final energy*, Ecor          =  -5201.158472684     eV
Dispersion corrected final free energy* (Ecor-TS) =  -5201.167960411     eV
NB dispersion corrected est. 0K energy* (Ecor-0.5TS) =  -5201.163216547     eV
 +++++++++++++++++++++++++++++++++++++++++++++++++++++++
 Path coordinate:                         0.36210
 Energy:                              -5201.16796 eV                            
 +++++++++++++++++++++++++++++++++++++++++++++++++++++++
 
------------------------------------------------------------------------ <-- SCF
SCF loop      Energy           Fermi           Energy gain       Timer   <-- SCF
                               energy          per atom          (sec)   <-- SCF
------------------------------------------------------------------------ <-- SCF
Initial  -5.19822475E+003  0.00000000E+000                      1086.25  <-- SCF
      1  -5.19833606E+003 -2.71753418E+000   3.27368307E-003    1090.86  <-- SCF
      2  -5.19833701E+003 -2.71756146E+000   2.79145208E-005    1097.69  <-- SCF
      3  -5.19833642E+003 -2.71895340E+000  -1.73186636E-005    1103.81  <-- SCF
      4  -5.19833646E+003 -2.71904950E+000   1.11979906E-006    1108.72  <-- SCF
      5  -5.19833648E+003 -2.71937016E+000   5.87583443E-007    1113.69  <-- SCF
      6  -5.19833650E+003 -2.71948988E+000   5.22210941E-007    1118.61  <-- SCF
      7  -5.19833651E+003 -2.71956207E+000   3.11082107E-007    1123.56  <-- SCF
------------------------------------------------------------------------ <-- SCF
 
Final energy, E             =  -5198.326808998     eV
Final free energy (E-TS)    =  -5198.336506693     eV
(energies not corrected for finite basis set)
 
NB est. 0K energy (E-0.5TS)      =  -5198.331657845     eV
 
(SEDC) Total Energy Correction : -0.280036E+01 eV

Dispersion corrected final energy*, Ecor          =  -5201.127164898     eV
Dispersion corrected final free energy* (Ecor-TS) =  -5201.136862593     eV
NB dispersion corrected est. 0K energy* (Ecor-0.5TS) =  -5201.132013745     eV
 +++++++++++++++++++++++++++++++++++++++++++++++++++++++
 Path coordinate:                         0.37898
 Energy:                              -5201.13686 eV                            
 +++++++++++++++++++++++++++++++++++++++++++++++++++++++
 
------------------------------------------------------------------------ <-- SCF
SCF loop      Energy           Fermi           Energy gain       Timer   <-- SCF
                               energy          per atom          (sec)   <-- SCF
------------------------------------------------------------------------ <-- SCF
Initial  -5.19831526E+003  0.00000000E+000                      1128.51  <-- SCF
      1  -5.19835193E+003 -2.71771305E+000   1.07855437E-003    1133.42  <-- SCF
      2  -5.19835227E+003 -2.71772261E+000   1.00650075E-005    1140.09  <-- SCF
      3  -5.19835203E+003 -2.71662917E+000  -7.03049461E-006    1145.95  <-- SCF
      4  -5.19835203E+003 -2.71655372E+000   6.11406484E-008    1150.81  <-- SCF
      5  -5.19835203E+003 -2.71627960E+000  -1.74484489E-007    1155.75  <-- SCF
------------------------------------------------------------------------ <-- SCF
 
Final energy, E             =  -5198.342446585     eV
Final free energy (E-TS)    =  -5198.352026856     eV
(energies not corrected for finite basis set)
 
NB est. 0K energy (E-0.5TS)      =  -5198.347236721     eV
 
(SEDC) Total Energy Correction : -0.280153E+01 eV

Dispersion corrected final energy*, Ecor          =  -5201.143976776     eV
Dispersion corrected final free energy* (Ecor-TS) =  -5201.153557047     eV
NB dispersion corrected est. 0K energy* (Ecor-0.5TS) =  -5201.148766911     eV
 +++++++++++++++++++++++++++++++++++++++++++++++++++++++
 Path coordinate:                         0.36856
 Energy:                              -5201.15356 eV                            
 +++++++++++++++++++++++++++++++++++++++++++++++++++++++
 
------------------------------------------------------------------------ <-- SCF
SCF loop      Energy           Fermi           Energy gain       Timer   <-- SCF
                               energy          per atom          (sec)   <-- SCF
------------------------------------------------------------------------ <-- SCF
Initial  -5.19829976E+003  0.00000000E+000                      1160.64  <-- SCF
      1  -5.19834098E+003 -2.71752387E+000   1.21228699E-003    1165.35  <-- SCF
      2  -5.19834111E+003 -2.71752745E+000   3.64608768E-006    1171.59  <-- SCF
      3  -5.19834102E+003 -2.71807666E+000  -2.64129885E-006    1176.76  <-- SCF
      4  -5.19834103E+003 -2.71806282E+000   2.66700727E-007    1181.22  <-- SCF
      5  -5.19834103E+003 -2.71814469E+000   1.36248954E-007    1185.97  <-- SCF
------------------------------------------------------------------------ <-- SCF
 
Final energy, E             =  -5198.331369254     eV
Final free energy (E-TS)    =  -5198.341030213     eV
(energies not corrected for finite basis set)
 
NB est. 0K energy (E-0.5TS)      =  -5198.336199733     eV
 
(SEDC) Total Energy Correction : -0.280084E+01 eV

Dispersion corrected final energy*, Ecor          =  -5201.132213692     eV
Dispersion corrected final free energy* (Ecor-TS) =  -5201.141874652     eV
NB dispersion corrected est. 0K energy* (Ecor-0.5TS) =  -5201.137044172     eV
 +++++++++++++++++++++++++++++++++++++++++++++++++++++++
 Path coordinate:                         0.37501
 Energy:                              -5201.14187 eV                            
 +++++++++++++++++++++++++++++++++++++++++++++++++++++++
 
------------------------------------------------------------------------ <-- SCF
SCF loop      Energy           Fermi           Energy gain       Timer   <-- SCF
                               energy          per atom          (sec)   <-- SCF
------------------------------------------------------------------------ <-- SCF
Initial  -5.19441862E+003  0.00000000E+000                      1190.58  <-- SCF
      1  -5.19815490E+003 -2.72710310E+000   1.09890566E-001    1195.40  <-- SCF
      2  -5.19829474E+003 -2.73305902E+000   4.11275485E-003    1202.04  <-- SCF
      3  -5.19828016E+003 -2.73138866E+000  -4.28722305E-004    1208.19  <-- SCF
      4  -5.19828160E+003 -2.73077659E+000   4.23996448E-005    1215.20  <-- SCF
      5  -5.19828163E+003 -2.73029872E+000   9.12552933E-007    1220.21  <-- SCF
      6  -5.19828162E+003 -2.73012805E+000  -2.47044665E-007    1225.03  <-- SCF
------------------------------------------------------------------------ <-- SCF
 
Final energy, E             =  -5198.271962519     eV
Final free energy (E-TS)    =  -5198.281623865     eV
(energies not corrected for finite basis set)
 
NB est. 0K energy (E-0.5TS)      =  -5198.276793192     eV
 
(SEDC) Total Energy Correction : -0.280307E+01 eV

Dispersion corrected final energy*, Ecor          =  -5201.075036057     eV
Dispersion corrected final free energy* (Ecor-TS) =  -5201.084697403     eV
NB dispersion corrected est. 0K energy* (Ecor-0.5TS) =  -5201.079866730     eV
 +++++++++++++++++++++++++++++++++++++++++++++++++++++++
 Path coordinate:                         0.36986
 Energy:                              -5201.08470 eV                            
 +++++++++++++++++++++++++++++++++++++++++++++++++++++++
 
------------------------------------------------------------------------ <-- SCF
SCF loop      Energy           Fermi           Energy gain       Timer   <-- SCF
                               energy          per atom          (sec)   <-- SCF
------------------------------------------------------------------------ <-- SCF
Initial  -5.19824445E+003  0.00000000E+000                      1229.64  <-- SCF
      1  -5.19827696E+003 -2.73050294E+000   9.56155397E-004    1234.66  <-- SCF
      2  -5.19827698E+003 -2.73050340E+000   4.83526087E-007    1239.40  <-- SCF
      3  -5.19827697E+003 -2.73055744E+000  -3.05058891E-007    1243.89  <-- SCF
[...]
      C    17      Pz                   1.007
      C    18      S                    1.031
      C    18      Px                   0.986
      C    18      Py                   0.986
      C    18      Pz                   0.995
      C    19      S                    1.021
      C    19      Px                   0.970
      C    19      Py                   0.992
      C    19      Pz                   0.995
      C    20      S                    1.115
      C    20      Px                   0.985
      C    20      Py                   0.999
      C    20      Pz                   1.028
      C    21      S                    1.114
      C    21      Px                   0.985
      C    21      Py                   0.999
      C    21      Pz                   1.027
      C    22      S                    1.021
      C    22      Px                   0.970
      C    22      Py                   0.992
      C    22      Pz                   0.995
      C    23      S                    1.032
      C    23      Px                   0.986
      C    23      Py                   0.986
      C    23      Pz                   0.995
      C    24      S                    1.028
      C    24      Px                   0.986
      C    24      Py                   0.985
      C    24      Pz                   1.007
      C    25      S                    1.027
      C    25      Px                   0.986
      C    25      Py                   0.986
      C    25      Pz                   1.000
      C    26      S                    1.028
      C    26      Px                   0.988
      C    26      Py                   0.984
      C    26      Pz                   1.001
      C    27      S                    1.025
      C    27      Px                   0.985
      C    27      Py                   0.987
      C    27      Pz                   1.002
      C    28      S                    1.025
      C    28      Px                   0.988
      C    28      Py                   0.988
      C    28      Pz                   0.999
      C    29      S                    1.025
      C    29      Px                   0.988
      C    29      Py                   0.989
      C    29      Pz                   0.999
      C    30      S                    1.020
      C    30      Px                   0.970
      C    30      Py                   0.992
      C    30      Pz                   0.995
      C    31      S                    1.031
      C    31      Px                   0.986
      C    31      Py                   0.986
      C    31      Pz                   0.995
      C    32      S                    1.039
      C    32      Px                   0.986
      C    32      Py                   0.967
      C    32      Pz                   1.005
  -------------------------------------------
                           Total:     129.998
  -------------------------------------------
 
     Atomic Populations (Mulliken)
     -----------------------------
Species          Ion     s       p       d       f      Total   Charge (e)
==========================================================================
  H               1     0.917   0.000   0.000   0.000   0.917     0.083
  H               2     0.920   0.000   0.000   0.000   0.920     0.080
  C               1     1.027   2.978   0.000   0.000   4.005    -0.005
  C               2     1.027   2.973   0.000   0.000   4.001    -0.001
  C               3     1.026   2.973   0.000   0.000   3.998     0.002
  C               4     1.026   2.971   0.000   0.000   3.997     0.003
  C               5     1.027   2.970   0.000   0.000   3.996     0.004
  C               6     1.025   2.974   0.000   0.000   3.999     0.001
  C               7     1.028   2.973   0.000   0.000   4.000    -0.000
  C               8     1.027   2.979   0.000   0.000   4.005    -0.005
  C               9     1.040   2.958   0.000   0.000   3.998     0.002
  C              10     1.032   2.967   0.000   0.000   3.999     0.001
  C              11     1.021   2.956   0.000   0.000   3.977     0.023
  C              12     1.026   2.975   0.000   0.000   4.001    -0.001
  C              13     1.026   2.975   0.000   0.000   4.001    -0.001
  C              14     1.026   2.973   0.000   0.000   3.999     0.001
  C              15     1.028   2.972   0.000   0.000   4.000    -0.000
  C              16     1.028   2.971   0.000   0.000   3.999     0.001
  C              17     1.028   2.978   0.000   0.000   4.005    -0.005
  C              18     1.031   2.967   0.000   0.000   3.999     0.001
  C              19     1.021   2.957   0.000   0.000   3.977     0.023
  C              20     1.115   3.012   0.000   0.000   4.127    -0.127
  C              21     1.114   3.011   0.000   0.000   4.125    -0.125
  C              22     1.021   2.957   0.000   0.000   3.978     0.022
  C              23     1.032   2.967   0.000   0.000   3.999     0.001
  C              24     1.028   2.978   0.000   0.000   4.005    -0.005
  C              25     1.027   2.972   0.000   0.000   3.999     0.001
  C              26     1.028   2.972   0.000   0.000   4.000    -0.000
  C              27     1.025   2.974   0.000   0.000   3.999     0.001
  C              28     1.025   2.975   0.000   0.000   4.000    -0.000
  C              29     1.025   2.976   0.000   0.000   4.000    -0.000
  C              30     1.020   2.957   0.000   0.000   3.977     0.023
  C              31     1.031   2.968   0.000   0.000   3.998     0.002
  C              32     1.039   2.959   0.000   0.000   3.998     0.002
==========================================================================
 
                 Bond                   Population      Length (A)
======================================================================
               H 1 -- H 2                    0.45        1.38576
              C 11 -- C 22                   1.22        1.38836
              C 19 -- C 30                   1.22        1.38849
              C 29 -- C 30                   1.09        1.41740
              C 19 -- C 28                   1.09        1.41793
              C 13 -- C 22                   1.09        1.41859
              C 11 -- C 12                   1.09        1.41888
              C 1  -- C 2                    1.10        1.41934
              C 7  -- C 8                    1.10        1.41947
              C 17 -- C 26                   1.09        1.42048
              C 15 -- C 24                   1.09        1.42063
              C 31 -- C 32                   1.12        1.42064
              C 4  -- C 27                   1.07        1.42145
              C 5  -- C 6                    1.07        1.42180
              C 3  -- C 4                    1.07        1.42188
              C 9  -- C 10                   1.12        1.42219
              C 5  -- C 14                   1.07        1.42293
              C 9  -- C 18                   1.11        1.42362
              C 6  -- C 29                   1.07        1.42366
              C 23 -- C 32                   1.11        1.42374
              C 27 -- C 28                   1.08        1.42411
              C 13 -- C 14                   1.08        1.42550
              C 3  -- C 12                   1.07        1.42556
              C 2  -- C 25                   1.07        1.42591
              C 4  -- C 25                   1.08        1.42668
              C 7  -- C 16                   1.07        1.42676
              C 25 -- C 26                   1.07        1.42679
              C 8  -- C 29                   1.06        1.42680
              C 6  -- C 27                   1.08        1.42683
              C 1  -- C 12                   1.06        1.42748
              C 15 -- C 16                   1.07        1.42802
              C 3  -- C 14                   1.08        1.42806
              C 5  -- C 16                   1.07        1.42825
              C 17 -- C 28                   1.06        1.42861
              C 13 -- C 24                   1.06        1.42878
              C 15 -- C 18                   1.05        1.43348
              C 8  -- C 31                   1.04        1.43349
              C 23 -- C 26                   1.05        1.43356
              C 23 -- C 24                   1.05        1.43391
              C 17 -- C 18                   1.05        1.43424
              C 2  -- C 31                   1.05        1.43446
              C 7  -- C 10                   1.05        1.43454
              C 1  -- C 10                   1.04        1.43496
               H 1 -- C 20                   0.44        1.43654
               H 2 -- C 21                   0.43        1.44296
              C 21 -- C 30                   0.95        1.47523
              C 21 -- C 22                   0.96        1.47547
              C 11 -- C 20                   0.95        1.47604
              C 19 -- C 20                   0.95        1.47614
              C 21 -- C 32                   0.94        1.49117
              C 9  -- C 20                   0.94        1.49198
               H 1 -- C 19                  -0.19        2.03920
               H 2 -- C 30                  -0.19        2.04070
               H 1 -- C 11                  -0.19        2.04119
               H 2 -- C 22                  -0.18        2.04166
               H 2 -- C 20                  -0.09        2.41732
               H 1 -- C 21                  -0.09        2.42423
              C 6  -- C 30                  -0.19        2.44172
              C 19 -- C 21                  -0.18        2.44351
              C 11 -- C 21                  -0.18        2.44363
              C 19 -- C 27                  -0.19        2.44380
              C 20 -- C 22                  -0.18        2.44401
              C 20 -- C 30                  -0.18        2.44418
              C 19 -- C 29                  -0.17        2.44533
              C 28 -- C 30                  -0.17        2.44536
              C 11 -- C 13                  -0.17        2.44564
              C 14 -- C 22                  -0.18        2.44608
              C 3  -- C 11                  -0.18        2.44620
              C 12 -- C 22                  -0.17        2.44624
              C 23 -- C 31                  -0.19        2.45130
              C 10 -- C 18                  -0.19        2.45259
              C 3  -- C 27                  -0.18        2.45405
              C 6  -- C 14                  -0.18        2.45632
              C 5  -- C 29                  -0.18        2.45698
              C 4  -- C 28                  -0.18        2.45731
              C 4  -- C 12                  -0.18        2.45999
              C 1  -- C 25                  -0.18        2.46104
              C 5  -- C 13                  -0.18        2.46129
              C 8  -- C 16                  -0.18        2.46227
              C 17 -- C 25                  -0.18        2.46329
              C 7  -- C 29                  -0.18        2.46430
              C 1  -- C 7                   -0.18        2.46443
              C 24 -- C 26                  -0.18        2.46483
              C 2  -- C 8                   -0.18        2.46483
              C 15 -- C 17                  -0.18        2.46502
              C 16 -- C 24                  -0.18        2.46503
               H 2 -- C 11                  -0.14        2.46545
              C 2  -- C 12                  -0.18        2.46556
               H 2 -- C 19                  -0.14        2.46574
              C 26 -- C 28                  -0.18        2.46679
              C 13 -- C 15                  -0.18        2.46704
              C 2  -- C 26                  -0.18        2.46785
               H 1 -- C 30                  -0.14        2.46802
              C 3  -- C 25                  -0.17        2.46882
              C 29 -- C 31                  -0.18        2.46895
              C 10 -- C 12                  -0.18        2.46911
              C 5  -- C 27                  -0.17        2.46960
              C 13 -- C 23                  -0.18        2.46986
              C 6  -- C 28                  -0.17        2.47001
              C 18 -- C 28                  -0.18        2.47009
               H 1 -- C 22                  -0.14        2.47068
              C 7  -- C 15                  -0.18        2.47078
              C 4  -- C 26                  -0.17        2.47110
              C 25 -- C 27                  -0.17        2.47115
              C 6  -- C 16                  -0.17        2.47128
              C 14 -- C 16                  -0.17        2.47162
              C 4  -- C 14                  -0.17        2.47178
              C 4  -- C 6                   -0.17        2.47185
              C 3  -- C 5                   -0.17        2.47198
              C 27 -- C 29                  -0.17        2.47246
              C 2  -- C 4                   -0.17        2.47256
              C 12 -- C 14                  -0.17        2.47282
              C 5  -- C 7                   -0.17        2.47294
              C 3  -- C 13                  -0.17        2.47307
              C 10 -- C 16                  -0.17        2.47323
              C 25 -- C 31                  -0.17        2.47401
              C 5  -- C 15                  -0.17        2.47413
              C 23 -- C 25                  -0.17        2.47471
              C 18 -- C 24                  -0.17        2.47496
              C 17 -- C 23                  -0.17        2.47501
              C 1  -- C 3                   -0.17        2.47503
              C 6  -- C 8                   -0.17        2.47505
              C 8  -- C 30                  -0.18        2.47508
              C 16 -- C 18                  -0.17        2.47529
              C 17 -- C 27                  -0.17        2.47555
              C 1  -- C 31                  -0.17        2.47600
              C 14 -- C 24                  -0.17        2.47650
              C 17 -- C 19                  -0.18        2.47737
              C 8  -- C 10                  -0.17        2.47739
              C 1  -- C 11                  -0.18        2.47769
              C 22 -- C 24                  -0.18        2.47801
              C 7  -- C 31                  -0.17        2.47940
              C 2  -- C 32                  -0.17        2.48044
              C 9  -- C 15                  -0.17        2.48078
              C 26 -- C 32                  -0.17        2.48102
              C 2  -- C 10                  -0.17        2.48144
              C 15 -- C 23                  -0.17        2.48190
              C 18 -- C 26                  -0.17        2.48193
              C 8  -- C 32                  -0.18        2.48239
              C 7  -- C 9                   -0.17        2.48252
              C 1  -- C 9                   -0.18        2.48601
              C 24 -- C 32                  -0.18        2.48638
              C 9  -- C 17                  -0.18        2.48663
              C 30 -- C 32                  -0.16        2.50115
              C 9  -- C 11                  -0.16        2.50139
              C 22 -- C 32                  -0.16        2.50192
              C 9  -- C 19                  -0.16        2.50273
              C 21 -- C 29                  -0.17        2.51487
              C 20 -- C 28                  -0.17        2.51647
              C 13 -- C 21                  -0.17        2.51668
              C 12 -- C 20                  -0.17        2.51754
              C 21 -- C 31                  -0.16        2.52798
              C 21 -- C 23                  -0.16        2.52987
              C 18 -- C 20                  -0.16        2.53002
              C 10 -- C 20                  -0.16        2.53030
              C 22 -- C 30                  -0.13        2.54701
              C 11 -- C 19                  -0.13        2.54740
               H 1 -- C 9                   -0.06        2.60571
               H 2 -- C 32                  -0.06        2.61125
              C 20 -- C 21                  -0.13        2.73301
              C 6  -- C 19                  -0.11        2.81821
              C 27 -- C 30                  -0.11        2.82031
              C 11 -- C 14                  -0.11        2.82215
              C 3  -- C 22                  -0.11        2.82277
              C 14 -- C 27                  -0.10        2.83910
              C 16 -- C 29                  -0.10        2.84059
              C 17 -- C 24                  -0.10        2.84070
              C 3  -- C 6                   -0.10        2.84087
              C 12 -- C 25                  -0.10        2.84106
              C 1  -- C 8                   -0.10        2.84226
              C 25 -- C 28                  -0.10        2.84279
              C 13 -- C 16                  -0.10        2.84453
              C 2  -- C 7                   -0.10        2.84468
              C 4  -- C 17                  -0.10        2.84613
              C 26 -- C 31                  -0.10        2.84645
              C 5  -- C 8                   -0.10        2.84703
              C 10 -- C 15                  -0.10        2.84720
              C 1  -- C 4                   -0.10        2.84766
              C 2  -- C 23                  -0.10        2.84769
              C 15 -- C 26                  -0.10        2.84795
              C 5  -- C 24                  -0.10        2.85019
              C 7  -- C 18                  -0.10        2.85058
              C 2  -- C 3                   -0.10        2.85764
              C 6  -- C 7                   -0.10        2.85864
              C 26 -- C 27                  -0.10        2.85871
              C 14 -- C 15                  -0.10        2.85893
              C 28 -- C 29                  -0.10        2.85917
              C 12 -- C 13                  -0.10        2.85935
              C 30 -- C 31                  -0.09        2.85936
              C 10 -- C 11                  -0.09        2.85985
              C 18 -- C 19                  -0.09        2.86038
              C 22 -- C 23                  -0.09        2.86043
              C 4  -- C 5                   -0.10        2.86191
              C 29 -- C 32                  -0.10        2.86338
              C 9  -- C 12                  -0.10        2.86473
              C 13 -- C 32                  -0.09        2.86592
              C 9  -- C 28                  -0.09        2.86642
              C 9  -- C 16                  -0.10        2.86690
              C 25 -- C 32                  -0.10        2.86719
              C 18 -- C 23                  -0.10        2.87831
              C 10 -- C 31                  -0.09        2.87992
              C 19 -- C 22                  -0.06        2.90075
              C 11 -- C 30                  -0.06        2.90131
              C 8  -- C 21                  -0.08        2.91490
              C 17 -- C 20                  -0.08        2.91828
              C 21 -- C 24                  -0.08        2.91850
              C 1  -- C 20                  -0.08        2.91983
======================================================================
 

Writing analysis data to 4x4.castep_bin

Writing model to 4x4.check
 
 A BibTeX formatted list of references used in this run has been written to 
 4x4.bib
 
Initialisation time =      2.95 s
Calculation time    =   8513.12 s
Finalisation time   =      1.78 s
Total time          =   8517.84 s
Peak Memory Use     = 1010900 kB
  
Overall parallel efficiency rating: Mediocre (53%)                              
  
Data was distributed by:-
G-vector (16-way); efficiency rating: Mediocre (55%)                            
k-point (8-way); efficiency rating: Excellent (94%)                             
