 +-------------------------------------------------+
 |                                                 |
 |      CCC   AA    SSS  TTTTT  EEEEE  PPPP        |
 |     C     A  A  S       T    E      P   P       |
 |     C     AAAA   SS     T    EEE    PPPP        |
 |     C     A  A     S    T    E      P           |
 |      CCC  A  A  SSS     T    EEEEE  P           |
 |                                                 |
 +-------------------------------------------------+
 |                                                 |
 | Welcome to Academic Release CASTEP version 21.11|          
 | Ab Initio Total Energy Program                  |
 |                                                 |
 | Authors:                                        |
 | M. Segall, M. Probert, C. Pickard, P. Hasnip,   |
 | S. Clark, K. Refson, J. R. Yates, M. Payne      |
 |                                                 |
 | Contributors:                                   |
 | P. Lindan, P. Haynes, J. White, V. Milman,      |
 | N. Govind, M. Gibson, P. Tulip, V. Cocula,      |
 | B. Montanari, D. Quigley, M. Glover,            |
 | L. Bernasconi, A. Perlov, M. Plummer,           |
 | E. McNellis, J. Meyer, J. Gale, D. Jochym       |
 | J. Aarons, B. Walker, R. Gillen, D. Jones       |
 | T. Green, I. J. Bush, C. J. Armstrong,          |
 | E. J. Higgins, E. L. Brown, M. S. McFly,        |
 | J. Wilkins, B-C. Shih, P. J. P. Byrne,          |
 | R. J. Maurer, J. C. Womack, J. Dziedzic,        |
 | A. Bartok-Partay, L. LeBlanc                    |
 |                                                 |
 | Copyright (c) 2000 - 2021                       |
 |                                                 |
 |     Distributed under license from Cambridge    |
 |     Enterprise for academic use only.           |
 |                                                 |
 | Please cite                                     |
 |                                                 |
 |     "First principles methods using CASTEP"     |
 |                                                 |
 |         Zeitschrift fuer Kristallographie       |
 |           220(5-6) pp. 567-570 (2005)           |
 |                                                 |
 | S. J. Clark, M. D. Segall, C. J. Pickard,       |
 | P. J. Hasnip, M. J. Probert, K. Refson,         |
 | M. C. Payne                                     |
 |                                                 |
 |       in all publications arising from          |
 |              your use of CASTEP                 |
 |                                                 |
 +-------------------------------------------------+
 |                                                 |
 |              http://www.castep.org              |
 |                                                 |
 +-------------------------------------------------+
 
 
 
 Compiled for linux_x86_64_cray-XT on Tue, 01 Mar 2022 09:19:15 +0000
 from code version 7d4405a8a+  HEAD  Sat Nov 27 13:38:33 2021 +0000
 Compiler: Cray Fortran 12.0.3; Optimisation: fast
 MATHLIBS: LibSci (LAPACK version 3.6.1)
 FFT Lib : fftw3 version commercial-fftw-3.3.8-sse2-avx-avx2-avx2_128
 Fundamental constants values: CODATA 2014
 
 Run started: Sun, 30 Oct 2022 11:03:11 +0000
 
 Atomic calculation performed for H: 1s1
 
 Converged in 41 iterations to an ae energy of -12.488 eV
 
   ============================================================                
   | Pseudopotential Report - Date of generation 30-10-2022   |                
   ------------------------------------------------------------                
   | Element: H Ionic charge:  1.00 Level of theory: PBE      |                
   | Atomic Solver: Koelling-Harmon                           |                
   |                                                          |                
   |               Reference Electronic Structure             |                
   |         Orbital         Occupation         Energy        |                
   |            1s              1.000           -0.239        |                
   |                                                          |                
   |                 Pseudopotential Definition               |                
   |        Beta     l      e      Rc     scheme   norm       |                
   |          1      0   -0.239   0.599     qc      0         |                
   |          2      0    0.250   0.599     qc      0         |                
   |         loc     1    0.000   0.599     pn      0         |                
   |                                                          |                
   | Augmentation charge Rinner = 0.421                       |                
   | No partial core correction                               |                
   ------------------------------------------------------------                
   | "1|0.6|13|15|17|10(qc=8)"                                |                
   ------------------------------------------------------------                
   |      Author: Chris J. Pickard, Cambridge University      |                
   ============================================================                
 
 Atomic calculation performed for C: 1s2 2s2 2p2
 
 Converged in 54 iterations to an ae energy of -1027.632 eV
 
   ============================================================                
   | Pseudopotential Report - Date of generation 30-10-2022   |                
   ------------------------------------------------------------                
   | Element: C Ionic charge:  4.00 Level of theory: PBE      |                
   | Atomic Solver: Koelling-Harmon                           |                
   |                                                          |                
   |               Reference Electronic Structure             |                
   |         Orbital         Occupation         Energy        |                
   |            2s              2.000           -0.505        |                
   |            2p              2.000           -0.194        |                
   |                                                          |                
   |                 Pseudopotential Definition               |                
   |        Beta     l      e      Rc     scheme   norm       |                
   |          1      0   -0.505   1.201     qc      1         |                
   |         loc     1   -0.194   1.201     qc      1         |                
   |                                                          |                
   | No charge augmentation                                   |                
   | Partial core correction Rc = 0.839                       |                
   ------------------------------------------------------------                
   | "1|1.2|17|20|23|20N:21L(qc=8)"                           |                
   ------------------------------------------------------------                
   |      Author: Chris J. Pickard, Cambridge University      |                
   ============================================================                
 
 Pseudo atomic calculation performed for H 1s1
 
 Converged in 13 iterations to a total energy of -12.4856 eV
 
 Pseudo atomic calculation performed for C 2s2 2p2
 
 Converged in 18 iterations to a total energy of -152.4291 eV
 Calculation parallelised over 128 processes.
 Data is distributed by G-vector(16-way) and k-point(8-way)

 ************************************ Title ************************************
 

 ***************************** General Parameters ******************************
  
 output verbosity                               : normal  (1)
 write checkpoint data to                       : 4x4.check
 type of calculation                            : geometry optimization
 stress calculation                             : off
 density difference calculation                 : off
 electron localisation func (ELF) calculation   : off
 Hirshfeld analysis                             : off
 polarisation (Berry phase) analysis            : off
 molecular orbital projected DOS                : off
 deltaSCF calculation                           : off
 unlimited duration calculation
 timing information                             : on
 memory usage estimate                          : on
 write extra output files                       : on
 write final potential to formatted file        : off
 write final density to formatted file          : off
 write structure in CELL formatted file         : on
 write BibTeX reference list                    : on
 write OTFG pseudopotential files               : on
 write electrostatic potential file             : on
 write bands file                               : on
 checkpoint writing                             : both castep_bin and check files
  
 output         length unit                     : A
 output           mass unit                     : amu
 output           time unit                     : ps
 output         charge unit                     : e
 output           spin unit                     : hbar/2
 output         energy unit                     : eV
 output          force unit                     : eV/A
 output       velocity unit                     : A/ps
 output       pressure unit                     : GPa
 output     inv_length unit                     : 1/A
 output      frequency unit                     : cm-1
 output force constant unit                     : eV/A**2
 output         volume unit                     : A**3
 output   IR intensity unit                     : (D/A)**2/amu
 output         dipole unit                     : D
 output         efield unit                     : eV/A/e
 output        entropy unit                     : J/mol/K
 output    efield chi2 unit                     : pm/V
  
 wavefunctions paging                           : none
 random number generator seed                   : randomised (110311759)
 data distribution                              : optimal for this architecture
 optimization strategy                          : maximize speed(+++)

 *********************** Exchange-Correlation Parameters ***********************
  
 using functional                               : Perdew Burke Ernzerhof
 relativistic treatment                         : Koelling-Harmon
 DFT+D: Semi-empirical dispersion correction    : on
 SEDC with                                      : MBD@rsSCS method

 ************************* Pseudopotential Parameters **************************
  
 pseudopotential representation                 : reciprocal space
 <beta|phi> representation                      : reciprocal space
 spin-orbit coupling                            : off

 **************************** Basis Set Parameters *****************************
  
 plane wave basis set cut-off                   :   800.0000   eV
 size of standard grid                          :     1.7500
 size of   fine   gmax                          :    25.3584   1/A
 finite basis set correction                    : none

 **************************** Electronic Parameters ****************************
  
 number of  electrons                           :  130.0    
 net charge of system                           :  0.000    
 treating system as non-spin-polarized
 number of bands                                :         98

 ********************* Electronic Minimization Parameters **********************
  
 Method: Treating system as metallic with density mixing treatment of electrons,
         and number of  SD  steps               :          1
         and number of  CG  steps               :          4
  
 total energy / atom convergence tol.           : 0.1000E-05   eV
 eigen-energy convergence tolerance             : 0.3469E-06   eV
 max force / atom convergence tol.              : ignored
 convergence tolerance window                   :          3   cycles
 max. number of SCF cycles                      :        100
 number of fixed-spin iterations                :         10
 smearing scheme                                : Gaussian
 smearing width                                 : 0.2000       eV
 Fermi energy convergence tolerance             : 0.2721E-13   eV
 periodic dipole correction                     : NONE

 ************************** Density Mixing Parameters **************************
  
 density-mixing scheme                          : Pulay
 max. length of mixing history                  :         20
 charge density mixing amplitude                : 0.8000    
 cut-off energy for mixing                      :  800.0       eV

 *********************** Population Analysis Parameters ************************
  
 Population analysis with cutoff                :  3.000       A
 Population analysis output                     : summary and pdos components

 ********************** Geometry Optimization Parameters ***********************
  
 optimization method                            : LBFGS
 max. no. of LBFGS updates                      : unbounded
 variable cell method                           : fixed basis quality
 max. number of steps                           :        100
 estimated bulk modulus                         :  500.0       GPa
 estimated <frequency>                          :  1668.       cm-1
 geom line minimiser                            : on
 with line minimiser tolerance                  :     0.4000
 total energy convergence tolerance             : 0.2000E-04   eV/atom
        max ionic |force| tolerance             : 0.1000E-01   eV/A
 max ionic |displacement| tolerance             : 0.1000E-02   A
   max |stress component| tolerance             : 0.1000       GPa
 convergence tolerance window                   :          2   steps
 backup results every                           :          5   steps
 write geom trajectory file                     : on

 *******************************************************************************
  
 
                           -------------------------------
                                      Unit Cell
                           -------------------------------
        Real Lattice(A)                      Reciprocal Lattice(1/A)
     9.8800000     0.0000000     0.0000000        0.635949930   0.367165863   0.000000000
    -4.9400000     8.5563310     0.0000000        0.000000000   0.734331726   0.000000000
     0.0000000     0.0000000    20.0339000        0.000000000   0.000000000   0.313627666
 
                       Lattice parameters(A)       Cell Angles
                    a =      9.880000          alpha =   90.000000
                    b =      9.880000          beta  =   90.000000
                    c =     20.033900          gamma =  120.000000
 
                       Current cell volume =          1693.596795       A**3
                                   density =             0.228129   AMU/A**3
                                           =             0.378817     g/cm^3
 
                           -------------------------------
                                     Cell Contents
                           -------------------------------
                         Total number of ions in cell =   34
                      Total number of species in cell =    2
                        Max number of any one species =   32
 
            xxxxxxxxxxxxxxxxxxxxxxxxxxxxxxxxxxxxxxxxxxxxxxxxxxxxxxxxxxxx
            x  Element    Atom        Fractional coordinates of atoms  x
            x            Number           u          v          w      x
            x----------------------------------------------------------x
            x  H            1         0.574012   0.396174   0.636087   x 
            x  H            2         0.614154   0.470730   0.639973   x 
            x  C            1         0.166476   0.083155   0.500002   x 
            x  C            2        -0.000100  -0.000140   0.500002   x 
            x  C            3         0.166447   0.333239   0.500002   x 
            x  C            4        -0.000173   0.249815   0.500002   x 
            x  C            5         0.166520   0.583404   0.500002   x 
            x  C            6        -0.000108   0.499946   0.500002   x 
            x  C            7         0.166543   0.833430   0.500002   x 
            x  C            8        -0.000049   0.750064   0.500002   x 
            x  C            9         0.416557   0.083155   0.500002   x 
            x  C           10         0.249870  -0.000199   0.500002   x 
            x  C           11         0.416592   0.333285   0.500002   x 
            x  C           12         0.249853   0.249827   0.500002   x 
            x  C           13         0.416666   0.583474   0.500002   x 
            x  C           14         0.249889   0.499981   0.500002   x 
            x  C           15         0.416657   0.833476   0.500002   x 
            x  C           16         0.249960   0.750123   0.500002   x 
            x  C           17         0.666714   0.083225   0.500002   x 
            x  C           18         0.500005  -0.000152   0.500002   x 
            x  C           19         0.666769   0.333356   0.500002   x 
            x  C           20         0.500012   0.249862   0.500002   x 
            x  C           21         0.666815   0.583509   0.500002   x 
            x  C           22         0.500066   0.500051   0.500002   x 
            x  C           23         0.666788   0.833535   0.500002   x 
            x  C           24         0.500117   0.750193   0.500002   x 
            x  C           25         0.916717   0.083272   0.500002   x 
            x  C           26         0.750125  -0.000093   0.500002   x 
            x  C           27         0.916770   0.333379   0.500002   x 
            x  C           28         0.750152   0.249920   0.500002   x 
            x  C           29         0.916836   0.583509   0.500002   x 
            x  C           30         0.750215   0.500086   0.500002   x 
            x  C           31         0.916769   0.833476   0.500002   x 
            x  C           32         0.750202   0.750181   0.500002   x 
            xxxxxxxxxxxxxxxxxxxxxxxxxxxxxxxxxxxxxxxxxxxxxxxxxxxxxxxxxxxx
 
 
                         No user defined ionic velocities
 
                           -------------------------------
                                   Details of Species
                           -------------------------------
 
                               Mass of species in AMU
                                    H    1.0079400
                                    C   12.0107000
 
                          Electric Quadrupole Moment (Barn)
                                    H    0.0028600 Isotope  2
                                    C    0.0332700 Isotope 11
 
                          Files used for pseudopotentials:
                                    H 1|0.6|13|15|17|10(qc=8)
                                    C 1|1.2|17|20|23|20N:21L(qc=8)
 
                           -------------------------------
                              k-Points For BZ Sampling
                           -------------------------------
                       MP grid size for SCF calculation is  4  4  1
                            with an offset of   0.000  0.000  0.000
                       Number of kpoints used =   8
 
                           -------------------------------
                               Symmetry and Constraints
                           -------------------------------
 
                      Maximum deviation from symmetry =  0.00000         ANG
 
                      Number of symmetry operations   = 1
         There are no ionic constraints specified or generated for this cell
                      Point group of crystal =     1: C1, 1, 1
                      Space group of crystal =     1: P1, P 1
 
             Set iprint > 1 for details on symmetry rotations/translations
 
                         Centre of mass is NOT constrained
 
                         Number of cell constraints= 6
                         Cell constraints are:  0 0 0 0 0 0
 
                         External pressure/stress (GPa)
                          0.00000   0.00000   0.00000
                                    0.00000   0.00000
                                              0.00000
 
                                --------------------
                                  DFT-D parameters
                                --------------------
 
                          Dispersion-correction scheme : MBD*      
                        Parameter sR :   0.830000 (default)
 
        xxxxxxxxxxxxxxxxxxxxxxxxxxxxxxxxxxxxxxxxxxxxxxxxxxxxxxxxxxxxxxxxxxxx
        x              Atomic DFT-D parameters                             x
        x  Species      C6            alpha        R0                      x
        x               eV A^6        A^3          A                       x
        x------------------------------------------------------------------x
        x  H             3.8839       0.6668       1.6404   (default)      x
        x  C            27.8448       1.7782       1.8997   (default)      x
        xxxxxxxxxxxxxxxxxxxxxxxxxxxxxxxxxxxxxxxxxxxxxxxxxxxxxxxxxxxxxxxxxxxx
 
  
+---------------- MEMORY AND SCRATCH DISK ESTIMATES PER PROCESS --------------+
|                                                     Memory          Disk    |
| Baseline code, static data and system overhead      770.0 MB         0.0 MB |
| BLAS internal memory storage                          0.0 MB         0.0 MB |
| Model and support data                               37.8 MB         0.0 MB |
| Electronic energy minimisation requirements          62.0 MB         0.0 MB |
| Force calculation requirements                       12.6 MB         0.0 MB |
|                                               ----------------------------- |
| Approx. total storage required per process          869.7 MB         0.0 MB |
|                                                                             |
| Requirements will fluctuate during execution and may exceed these estimates |
+-----------------------------------------------------------------------------+
Calculating approximate eigenstates for fixed initial Hamiltonian
Cut-off for approx. calculation is  119.774 eV
Improving approx. states at cut-off of  462.594 eV
Resetting cut-off to  800.000 eV
Calculating total energy with cut-off of  800.000 eV.
------------------------------------------------------------------------ <-- SCF
SCF loop      Energy           Fermi           Energy gain       Timer   <-- SCF
                               energy          per atom          (sec)   <-- SCF
------------------------------------------------------------------------ <-- SCF
Initial  -4.75107843E+003  0.00000000E+000                        10.36  <-- SCF
      1  -5.21768130E+003 -5.67629426E+000   1.37236138E+001      15.94  <-- SCF
      2  -5.21789407E+003 -5.67703705E+000   6.25798172E-003      21.69  <-- SCF
      3  -5.20452987E+003 -4.38151311E+000  -3.93064638E-001      27.81  <-- SCF
      4  -5.20376649E+003 -3.89266460E+000  -2.24523787E-002      34.05  <-- SCF
      5  -5.20352719E+003 -3.56400904E+000  -7.03807461E-003      40.60  <-- SCF
      6  -5.20342010E+003 -3.23496625E+000  -3.14970198E-003      46.76  <-- SCF
      7  -5.20337038E+003 -3.08272191E+000  -1.46249215E-003      52.86  <-- SCF
      8  -5.20335527E+003 -2.91935988E+000  -4.44294979E-004      58.99  <-- SCF
      9  -5.20336897E+003 -2.81723946E+000   4.02732111E-004      64.99  <-- SCF
     10  -5.20338013E+003 -2.73429161E+000   3.28374800E-004      70.81  <-- SCF
     11  -5.20338048E+003 -2.65298707E+000   1.02143156E-005      76.26  <-- SCF
     12  -5.20337855E+003 -2.57852524E+000  -5.66391304E-005      81.65  <-- SCF
     13  -5.20337710E+003 -2.50853189E+000  -4.27980612E-005      86.94  <-- SCF
     14  -5.20338039E+003 -2.44244831E+000   9.67681019E-005      92.17  <-- SCF
     15  -5.20338820E+003 -2.41331618E+000   2.29881367E-004      97.16  <-- SCF
     16  -5.20339175E+003 -2.41098354E+000   1.04323750E-004     102.05  <-- SCF
     17  -5.20339257E+003 -2.41056324E+000   2.41807664E-005     106.78  <-- SCF
     18  -5.20339275E+003 -2.41030049E+000   5.15252746E-006     111.51  <-- SCF
     19  -5.20339278E+003 -2.41032487E+000   1.01333533E-006     116.23  <-- SCF
     20  -5.20339280E+003 -2.41031517E+000   6.37425395E-007     121.08  <-- SCF
     21  -5.20339281E+003 -2.41032512E+000   2.76818269E-007     126.00  <-- SCF
------------------------------------------------------------------------ <-- SCF
 
Final energy, E             =  -5203.388969762     eV
Final free energy (E-TS)    =  -5203.392813289     eV
(energies not corrected for finite basis set)
 
NB est. 0K energy (E-0.5TS)      =  -5203.390891525     eV
 
 WARNING: Your unit cell might be too small to get accurate results for van der Waals
(SEDC) Total Energy Correction : -0.274554E+01 eV

Dispersion corrected final energy*, Ecor          =  -5206.134505007     eV
Dispersion corrected final free energy* (Ecor-TS) =  -5206.138348534     eV
NB dispersion corrected est. 0K energy* (Ecor-0.5TS) =  -5206.136426771     eV

Writing analysis data to 4x4.castep_bin

Writing model to 4x4.check
 
+---------------- MEMORY AND SCRATCH DISK ESTIMATES PER PROCESS --------------+
|                                                     Memory          Disk    |
| Model and support data                               45.7 MB         0.0 MB |
| Electronic energy minimisation requirements          62.0 MB         0.0 MB |
| Geometry minimisation requirements                   71.3 MB         0.0 MB |
|                                               ----------------------------- |
| Approx. total storage required per process          179.0 MB         0.0 MB |
|                                                                             |
| Requirements will fluctuate during execution and may exceed these estimates |
+-----------------------------------------------------------------------------+
 
 
 ************************************** Forces **************************************
 *                                                                                  *
 *                           Cartesian components (eV/A)                            *
 * -------------------------------------------------------------------------------- *
 *                         x                    y                    z              *
 *                                                                                  *
 * H               1     -0.23331             -5.26985             -0.54657         *
 * H               2      0.23279              5.26109              0.72815         *
 * C               1     -0.00676             -0.00262             -0.00029         *
 * C               2      0.00349             -0.00343              0.00014         *
 * C               3     -0.00343              0.00260              0.00016         *
 * C               4      0.00162             -0.00187             -0.00013         *
 * C               5     -0.00993              0.00785             -0.00002         *
 * C               6     -0.00047              0.00088              0.00087         *
 * C               7     -0.00904              0.00165              0.00015         *
 * C               8     -0.00387              0.00005              0.00068         *
 * C               9     -0.00017             -0.01606             -0.00036         *
 * C              10      0.00414             -0.00031             -0.00038         *
 * C              11     -0.00469              0.01230             -0.02283         *
 * C              12     -0.00537             -0.00161             -0.00057         *
 * C              13     -0.00962             -0.00105             -0.00139         *
 * C              14      0.00016              0.00038              0.00037         *
 * C              15     -0.00943              0.00718              0.00008         *
 * C              16     -0.00448             -0.00316              0.00004         *
 * C              17      0.00559             -0.00592             -0.00028         *
 * C              18      0.00814             -0.00183             -0.00034         *
 * C              19      0.01513              0.00605             -0.02610         *
 * C              20      0.00406              0.00446             -0.01474         *
 * C              21      0.00460             -0.00291             -0.03930         *
 * C              22      0.00555             -0.00179             -0.03590         *
 * C              23      0.00299              0.00302              0.00037         *
 * C              24     -0.00015             -0.00005              0.00013         *
 * C              25      0.00504             -0.00299              0.00001         *
 * C              26      0.00811             -0.00202              0.00012         *
 * C              27      0.00356              0.00073              0.00023         *
 * C              28      0.00100             -0.00157             -0.00080         *
 * C              29     -0.00459              0.00196             -0.00142         *
 * C              30      0.00222              0.00173             -0.03904         *
 * C              31      0.00009              0.00612              0.00037         *
 * C              32     -0.00298              0.00096             -0.00142         *
 *                                                                                  *
 ************************************************************************************
 LBFGS: finished iteration     0 with enthalpy= -5.20613835E+003 eV
  
 +-----------+-----------------+-----------------+------------+-----+ <-- LBFGS
 | Parameter |      value      |    tolerance    |    units   | OK? | <-- LBFGS
 +-----------+-----------------+-----------------+------------+-----+ <-- LBFGS
 |  dE/ion   |   0.000000E+000 |   2.000000E-005 |         eV | No  | <-- LBFGS
 |  |F|max   |   5.316342E+000 |   1.000000E-002 |       eV/A | No  | <-- LBFGS
 |  |dR|max  |   0.000000E+000 |   1.000000E-003 |          A | No  | <-- LBFGS
 +-----------+-----------------+-----------------+------------+-----+ <-- LBFGS
  

================================================================================
 Starting LBFGS iteration          1 ...
================================================================================
  
 +------------+-------------+-------------+-----------------+ <-- min LBFGS
 |    Step    |   lambda    |   F.delta'  |    enthalpy     | <-- min LBFGS
 +------------+-------------+-------------+-----------------+ <-- min LBFGS
 |  previous  |    0.000000 |    2.094605 |    -5206.138349 | <-- min LBFGS
 +------------+-------------+-------------+-----------------+ <-- min LBFGS
  

--------------------------------------------------------------------------------
 LBFGS: starting iteration         1 with trial guess (lambda=  1.000000)
--------------------------------------------------------------------------------
 
                           -------------------------------
                                     Cell Contents
                           -------------------------------
 
            xxxxxxxxxxxxxxxxxxxxxxxxxxxxxxxxxxxxxxxxxxxxxxxxxxxxxxxxxxxxxxxxx
            x  Element         Atom        Fractional coordinates of atoms  x
            x                 Number           u          v          w      x
            x---------------------------------------------------------------x
            x  H                 1         0.571159   0.390875   0.635852   x
            x  H                 2         0.617001   0.476020   0.640285   x
            x  C                 1         0.166469   0.083152   0.500002   x
            x  C                 2        -0.000099  -0.000144   0.500003   x
            x  C                 3         0.166446   0.333241   0.500003   x
            x  C                 4        -0.000173   0.249813   0.500002   x
            x  C                 5         0.166515   0.583412   0.500002   x
            x  C                 6        -0.000108   0.499946   0.500003   x
            x  C                 7         0.166536   0.833431   0.500003   x
            x  C                 8        -0.000052   0.750065   0.500003   x
            x  C                 9         0.416549   0.083139   0.500002   x
            x  C                10         0.249874  -0.000199   0.500002   x
            x  C                11         0.416594   0.333298   0.499993   x
            x  C                12         0.249847   0.249825   0.500002   x
            x  C                13         0.416657   0.583473   0.500002   x
            x  C                14         0.249889   0.499981   0.500003   x
            x  C                15         0.416653   0.833484   0.500003   x
            x  C                16         0.249955   0.750120   0.500003   x
            x  C                17         0.666716   0.083219   0.500002   x
            x  C                18         0.500011  -0.000154   0.500002   x
            x  C                19         0.666785   0.333362   0.499991   x
            x  C                20         0.500018   0.249866   0.499996   x
            x  C                21         0.666818   0.583507   0.499986   x
            x  C                22         0.500070   0.500049   0.499987   x
            x  C                23         0.666792   0.833538   0.500003   x
            x  C                24         0.500117   0.750193   0.500003   x
            x  C                25         0.916720   0.083269   0.500003   x
            x  C                26         0.750131  -0.000096   0.500003   x
            x  C                27         0.916774   0.333380   0.500003   x
            x  C                28         0.750152   0.249919   0.500002   x
            x  C                29         0.916833   0.583511   0.500002   x
            x  C                30         0.750218   0.500088   0.499986   x
            x  C                31         0.916772   0.833483   0.500003   x
            x  C                32         0.750200   0.750182   0.500002   x
            xxxxxxxxxxxxxxxxxxxxxxxxxxxxxxxxxxxxxxxxxxxxxxxxxxxxxxxxxxxxxxxxx
 
 
------------------------------------------------------------------------ <-- SCF
SCF loop      Energy           Fermi           Energy gain       Timer   <-- SCF
                               energy          per atom          (sec)   <-- SCF
------------------------------------------------------------------------ <-- SCF
Initial  -5.20283235E+003  0.00000000E+000                       132.11  <-- SCF
      1  -5.20365282E+003 -2.41046815E+000   2.41313504E-002     137.32  <-- SCF
      2  -5.20365356E+003 -2.41046822E+000   2.17291333E-005     142.66  <-- SCF
      3  -5.20363855E+003 -2.40966388E+000  -4.41264413E-004     147.96  <-- SCF
      4  -5.20363875E+003 -2.40926958E+000   5.79881350E-006     153.15  <-- SCF
      5  -5.20363887E+003 -2.40908429E+000   3.54652672E-006     158.15  <-- SCF
      6  -5.20363892E+003 -2.40906897E+000   1.58666191E-006     163.04  <-- SCF
      7  -5.20363894E+003 -2.40915097E+000   5.77623514E-007     167.91  <-- SCF
      8  -5.20363896E+003 -2.40934548E+000   4.25148343E-007     172.85  <-- SCF
      9  -5.20363896E+003 -2.40953295E+000   1.61960327E-007     177.73  <-- SCF
------------------------------------------------------------------------ <-- SCF
 
Final energy, E             =  -5203.635125749     eV
Final free energy (E-TS)    =  -5203.638963848     eV
(energies not corrected for finite basis set)
 
NB est. 0K energy (E-0.5TS)      =  -5203.637044798     eV
 
(SEDC) Total Energy Correction : -0.275123E+01 eV

Dispersion corrected final energy*, Ecor          =  -5206.386359728     eV
Dispersion corrected final free energy* (Ecor-TS) =  -5206.390197826     eV
NB dispersion corrected est. 0K energy* (Ecor-0.5TS) =  -5206.388278777     eV
 
 ************************************** Forces **************************************
 *                                                                                  *
 *                           Cartesian components (eV/A)                            *
 * -------------------------------------------------------------------------------- *
 *                         x                    y                    z              *
 *                                                                                  *
 * H               1     -0.02484             -0.58475              0.03038         *
 * H               2      0.02484              0.57310              0.16126         *
 * C               1     -0.00213             -0.00055             -0.00027         *
 * C               2      0.00170             -0.00146              0.00029         *
 * C               3     -0.00245              0.00148              0.00017         *
 * C               4      0.00097             -0.00147             -0.00005         *
 * C               5     -0.00530              0.00328              0.00027         *
 * C               6     -0.00225              0.00142              0.00102         *
 * C               7     -0.00587              0.00005              0.00026         *
 * C               8     -0.00405              0.00100              0.00062         *
 * C               9      0.00237             -0.00753             -0.00100         *
 * C              10     -0.00031             -0.00161             -0.00046         *
 * C              11     -0.00303              0.00735             -0.02375         *
 * C              12     -0.00469              0.00007             -0.00156         *
 * C              13     -0.00329             -0.00068             -0.00305         *
 * C              14     -0.00419              0.00179              0.00052         *
 * C              15     -0.00441              0.00173              0.00014         *
 * C              16     -0.00629              0.00149             -0.00004         *
 * C              17      0.00614             -0.00314             -0.00020         *
 * C              18      0.00486             -0.00183             -0.00044         *
 * C              19      0.00969              0.00507             -0.02712         *
 * C              20      0.00363              0.00244             -0.01415         *
 * C              21      0.00269             -0.00217             -0.03857         *
 * C              22      0.00055              0.00144             -0.03707         *
 * C              23      0.00088              0.00057              0.00038         *
 * C              24     -0.00306              0.00162              0.00008         *
 * C              25      0.00461             -0.00148             -0.00007         *
 * C              26      0.00647             -0.00084              0.00030         *
 * C              27      0.00263             -0.00018              0.00026         *
 * C              28      0.00461             -0.00191             -0.00195         *
 * C              29     -0.00272              0.00110             -0.00322         *
 * C              30      0.00366              0.00106             -0.03997         *
 * C              31     -0.00114              0.00205              0.00031         *
 * C              32     -0.00028              0.00153             -0.00331         *
 *                                                                                  *
 ************************************************************************************
  
 +------------+-------------+-------------+-----------------+ <-- min LBFGS
 |    Step    |   lambda    |   F.delta'  |    enthalpy     | <-- min LBFGS
 +------------+-------------+-------------+-----------------+ <-- min LBFGS
 |  previous  |    0.000000 |    2.094605 |    -5206.138349 | <-- min LBFGS
 | trial step |    1.000000 |    0.230867 |    -5206.390198 | <-- min LBFGS
 +------------+-------------+-------------+-----------------+ <-- min LBFGS
  
 LBFGS: finished iteration     1 with enthalpy= -5.20639020E+003 eV
  
 +-----------+-----------------+-----------------+------------+-----+ <-- LBFGS
 | Parameter |      value      |    tolerance    |    units   | OK? | <-- LBFGS
 +-----------+-----------------+-----------------+------------+-----+ <-- LBFGS
 |  dE/ion   |   7.407332E-003 |   2.000000E-005 |         eV | No  | <-- LBFGS
 |  |F|max   |   5.958692E-001 |   1.000000E-002 |       eV/A | No  | <-- LBFGS
 |  |dR|max  |   4.573653E-002 |   1.000000E-003 |          A | No  | <-- LBFGS
 +-----------+-----------------+-----------------+------------+-----+ <-- LBFGS
  

================================================================================
 Starting LBFGS iteration          2 ...
================================================================================
  
 +------------+-------------+-------------+-----------------+ <-- min LBFGS
 |    Step    |   lambda    |   F.delta'  |    enthalpy     | <-- min LBFGS
 +------------+-------------+-------------+-----------------+ <-- min LBFGS
 |  previous  |    0.000000 |    0.237681 |    -5206.390198 | <-- min LBFGS
 +------------+-------------+-------------+-----------------+ <-- min LBFGS
  

--------------------------------------------------------------------------------
 LBFGS: starting iteration         2 with trial guess (lambda=  1.000000)
--------------------------------------------------------------------------------
 
                           -------------------------------
                                     Cell Contents
                           -------------------------------
 
            xxxxxxxxxxxxxxxxxxxxxxxxxxxxxxxxxxxxxxxxxxxxxxxxxxxxxxxxxxxxxxxxx
            x  Element         Atom        Fractional coordinates of atoms  x
            x                 Number           u          v          w      x
            x---------------------------------------------------------------x
            x  H                 1         0.570803   0.390212   0.635866   x
            x  H                 2         0.617351   0.476670   0.640363   x
            x  C                 1         0.166467   0.083152   0.500002   x
            x  C                 2        -0.000098  -0.000145   0.500003   x
            x  C                 3         0.166444   0.333243   0.500003   x
            x  C                 4        -0.000173   0.249811   0.500002   x
            x  C                 5         0.166512   0.583416   0.500003   x
            x  C                 6        -0.000110   0.499948   0.500003   x
            x  C                 7         0.166530   0.833431   0.500003   x
            x  C                 8        -0.000055   0.750066   0.500003   x
            x  C                 9         0.416547   0.083130   0.500002   x
            x  C                10         0.249873  -0.000201   0.500002   x
            x  C                11         0.416595   0.333306   0.499981   x
            x  C                12         0.249843   0.249825   0.500001   x
            x  C                13         0.416654   0.583473   0.500000   x
            x  C                14         0.249886   0.499983   0.500003   x
            x  C                15         0.416649   0.833486   0.500003   x
            x  C                16         0.249949   0.750121   0.500002   x
            x  C                17         0.666720   0.083215   0.500002   x
            x  C                18         0.500015  -0.000156   0.500002   x
            x  C                19         0.666797   0.333367   0.499978   x
            x  C                20         0.500023   0.249869   0.499989   x
            x  C                21         0.666819   0.583504   0.499967   x
            x  C                22         0.500071   0.500051   0.499969   x
            x  C                23         0.666793   0.833539   0.500003   x
            x  C                24         0.500115   0.750195   0.500003   x
            x  C                25         0.916723   0.083267   0.500002   x
            x  C                26         0.750137  -0.000096   0.500003   x
            x  C                27         0.916776   0.333379   0.500003   x
            x  C                28         0.750156   0.249916   0.500001   x
            x  C                29         0.916831   0.583513   0.500000   x
            x  C                30         0.750222   0.500089   0.499966   x
            x  C                31         0.916772   0.833485   0.500003   x
            x  C                32         0.750200   0.750184   0.500000   x
            xxxxxxxxxxxxxxxxxxxxxxxxxxxxxxxxxxxxxxxxxxxxxxxxxxxxxxxxxxxxxxxxx
 
 
------------------------------------------------------------------------ <-- SCF
SCF loop      Energy           Fermi           Energy gain       Timer   <-- SCF
                               energy          per atom          (sec)   <-- SCF
------------------------------------------------------------------------ <-- SCF
Initial  -5.20356677E+003  0.00000000E+000                       182.18  <-- SCF
      1  -5.20364327E+003 -2.40983852E+000   2.24999520E-003     187.67  <-- SCF
      2  -5.20364328E+003 -2.40983854E+000   2.69167877E-007     192.70  <-- SCF
      3  -5.20364309E+003 -2.40980304E+000  -5.62601489E-006     197.68  <-- SCF
      4  -5.20364310E+003 -2.40981982E+000   1.62614209E-007     202.61  <-- SCF
      5  -5.20364310E+003 -2.40987884E+000   4.90040704E-008     207.44  <-- SCF
------------------------------------------------------------------------ <-- SCF
 
Final energy, E             =  -5203.639258858     eV
Final free energy (E-TS)    =  -5203.643096800     eV
(energies not corrected for finite basis set)
 
NB est. 0K energy (E-0.5TS)      =  -5203.641177829     eV
 
(SEDC) Total Energy Correction : -0.275174E+01 eV

Dispersion corrected final energy*, Ecor          =  -5206.391003705     eV
Dispersion corrected final free energy* (Ecor-TS) =  -5206.394841647     eV
NB dispersion corrected est. 0K energy* (Ecor-0.5TS) =  -5206.392922676     eV
 
 ************************************** Forces **************************************
 *                                                                                  *
 *                           Cartesian components (eV/A)                            *
 * -------------------------------------------------------------------------------- *
 *                         x                    y                    z              *
 *                                                                                  *
 * H               1     -0.00648             -0.17197              0.08086         *
 * H               2      0.00649              0.16021              0.11137         *
 * C               1     -0.00057              0.00016             -0.00011         *
 * C               2      0.00146             -0.00069              0.00050         *
 * C               3     -0.00227              0.00122              0.00012         *
 * C               4      0.00095             -0.00093              0.00009         *
 * C               5     -0.00426              0.00246              0.00063         *
 * C               6     -0.00223              0.00096              0.00098         *
 * C               7     -0.00499              0.00010              0.00042         *
 * C               8     -0.00362              0.00056              0.00053         *
 * C               9      0.00223             -0.00262             -0.00135         *
 * C              10     -0.00070             -0.00096             -0.00036         *
 * C              11     -0.00132              0.00295             -0.02344         *
 * C              12     -0.00273              0.00110             -0.00239         *
 * C              13     -0.00263              0.00073             -0.00441         *
 * C              14     -0.00366              0.00177              0.00054         *
 * C              15     -0.00314              0.00027              0.00025         *
 * C              16     -0.00523              0.00180             -0.00006         *
 * C              17      0.00530             -0.00202             -0.00006         *
 * C              18      0.00371             -0.00140             -0.00037         *
 * C              19      0.00621              0.00182             -0.02653         *
 * C              20      0.00286              0.00162             -0.01497         *
 * C              21      0.00179             -0.00039             -0.03750         *
 * C              22     -0.00036              0.00226             -0.03562         *
 * C              23      0.00014             -0.00015              0.00037         *
 * C              24     -0.00260              0.00084              0.00005         *
 * C              25      0.00376             -0.00081             -0.00009         *
 * C              26      0.00511             -0.00090              0.00054         *
 * C              27      0.00210             -0.00015              0.00021         *
 * C              28      0.00473             -0.00149             -0.00291         *
 * C              29     -0.00123              0.00161             -0.00466         *
 * C              30      0.00265              0.00111             -0.03827         *
 * C              31     -0.00138              0.00087              0.00031         *
 * C              32     -0.00010              0.00007             -0.00471         *
 *                                                                                  *
 ************************************************************************************
  
 +------------+-------------+-------------+-----------------+ <-- min LBFGS
 |    Step    |   lambda    |   F.delta'  |    enthalpy     | <-- min LBFGS
 +------------+-------------+-------------+-----------------+ <-- min LBFGS
 |  previous  |    0.000000 |    0.237681 |    -5206.390198 | <-- min LBFGS
 | trial step |    1.000000 |    0.073940 |    -5206.394842 | <-- min LBFGS
 +------------+-------------+-------------+-----------------+ <-- min LBFGS
  

--------------------------------------------------------------------------------
 LBFGS: improving iteration         2 with line minimization (lambda=  1.451566)
--------------------------------------------------------------------------------
 
                           -------------------------------
                                     Cell Contents
                           -------------------------------
 
            xxxxxxxxxxxxxxxxxxxxxxxxxxxxxxxxxxxxxxxxxxxxxxxxxxxxxxxxxxxxxxxxx
            x  Element         Atom        Fractional coordinates of atoms  x
            x                 Number           u          v          w      x
            x---------------------------------------------------------------x
            x  H                 1         0.570642   0.389913   0.635873   x
            x  H                 2         0.617509   0.476964   0.640399   x
            x  C                 1         0.166465   0.083151   0.500002   x
            x  C                 2        -0.000098  -0.000146   0.500003   x
            x  C                 3         0.166443   0.333244   0.500003   x
            x  C                 4        -0.000173   0.249811   0.500002   x
            x  C                 5         0.166510   0.583418   0.500003   x
            x  C                 6        -0.000110   0.499949   0.500004   x
            x  C                 7         0.166527   0.833431   0.500003   x
            x  C                 8        -0.000057   0.750066   0.500003   x
            x  C                 9         0.416546   0.083126   0.500002   x
            x  C                10         0.249872  -0.000202   0.500002   x
            x  C                11         0.416596   0.333310   0.499976   x
            x  C                12         0.249841   0.249825   0.500001   x
            x  C                13         0.416652   0.583472   0.500000   x
            x  C                14         0.249885   0.499984   0.500003   x
            x  C                15         0.416648   0.833486   0.500003   x
            x  C                16         0.249947   0.750122   0.500002   x
            x  C                17         0.666722   0.083214   0.500002   x
            x  C                18         0.500017  -0.000157   0.500002   x
            x  C                19         0.666803   0.333370   0.499972   x
            x  C                20         0.500025   0.249870   0.499986   x
            x  C                21         0.666820   0.583503   0.499959   x
            x  C                22         0.500072   0.500051   0.499961   x
            x  C                23         0.666794   0.833539   0.500003   x
            x  C                24         0.500114   0.750196   0.500003   x
            x  C                25         0.916725   0.083266   0.500002   x
            x  C                26         0.750140  -0.000097   0.500003   x
            x  C                27         0.916777   0.333379   0.500003   x
            x  C                28         0.750157   0.249915   0.500001   x
            x  C                29         0.916830   0.583513   0.500000   x
            x  C                30         0.750224   0.500089   0.499958   x
            x  C                31         0.916772   0.833486   0.500003   x
            x  C                32         0.750201   0.750185   0.500000   x
            xxxxxxxxxxxxxxxxxxxxxxxxxxxxxxxxxxxxxxxxxxxxxxxxxxxxxxxxxxxxxxxxx
 
 
------------------------------------------------------------------------ <-- SCF
SCF loop      Energy           Fermi           Energy gain       Timer   <-- SCF
                               energy          per atom          (sec)   <-- SCF
------------------------------------------------------------------------ <-- SCF
Initial  -5.20361057E+003  0.00000000E+000                       211.88  <-- SCF
      1  -5.20364349E+003 -2.40995723E+000   9.68198546E-004     216.76  <-- SCF
      2  -5.20364349E+003 -2.40995723E+000   7.28214243E-008     220.95  <-- SCF
      3  -5.20364346E+003 -2.40997100E+000  -1.08559036E-006     225.79  <-- SCF
      4  -5.20364346E+003 -2.41001022E+000   8.14088285E-009     230.35  <-- SCF
      5  -5.20364346E+003 -2.41008272E+000   2.76744751E-008     234.56  <-- SCF
------------------------------------------------------------------------ <-- SCF
 
Final energy, E             =  -5203.639618632     eV
Final free energy (E-TS)    =  -5203.643456510     eV
(energies not corrected for finite basis set)
 
NB est. 0K energy (E-0.5TS)      =  -5203.641537571     eV
 
(SEDC) Total Energy Correction : -0.275204E+01 eV

Dispersion corrected final energy*, Ecor          =  -5206.391658333     eV
Dispersion corrected final free energy* (Ecor-TS) =  -5206.395496212     eV
NB dispersion corrected est. 0K energy* (Ecor-0.5TS) =  -5206.393577272     eV
 
 ************************************** Forces **************************************
 *                                                                                  *
 *                           Cartesian components (eV/A)                            *
 * -------------------------------------------------------------------------------- *
 *                         x                    y                    z              *
 *                                                                                  *
 * H               1      0.00140              0.00520              0.10244         *
 * H               2     -0.00139             -0.01703              0.08994         *
 * C               1      0.00015              0.00048             -0.00006         *
 * C               2      0.00135             -0.00032              0.00058         *
 * C               3     -0.00224              0.00112              0.00008         *
 * C               4      0.00095             -0.00074              0.00014         *
 * C               5     -0.00379              0.00212              0.00079         *
 * C               6     -0.00221              0.00076              0.00095         *
 * C               7     -0.00460              0.00010              0.00047         *
 * C               8     -0.00347              0.00038              0.00048         *
 * C               9      0.00222             -0.00049             -0.00146         *
 * C              10     -0.00090             -0.00068             -0.00034         *
 * C              11     -0.00052              0.00108             -0.02326         *
 * C              12     -0.00190              0.00155             -0.00273         *
 * C              13     -0.00234              0.00133             -0.00500         *
 * C              14     -0.00354              0.00178              0.00055         *
 * C              15     -0.00265             -0.00040              0.00028         *
 * C              16     -0.00480              0.00197             -0.00011         *
 * C              17      0.00496             -0.00155             -0.00001         *
 * C              18      0.00325             -0.00122             -0.00036         *
 * C              19      0.00469              0.00045             -0.02624         *
 * C              20      0.00255              0.00131             -0.01515         *
 * C              21      0.00142              0.00028             -0.03695         *
 * C              22     -0.00070              0.00265             -0.03496         *
 * C              23     -0.00023             -0.00047              0.00035         *
 * C              24     -0.00246              0.00055              0.00002         *
 * C              25      0.00343             -0.00050             -0.00014         *
 * C              26      0.00456             -0.00091              0.00063         *
 * C              27      0.00194             -0.00013              0.00017         *
 * C              28      0.00483             -0.00136             -0.00332         *
 * C              29     -0.00060              0.00185             -0.00529         *
 * C              30      0.00214              0.00111             -0.03752         *
 * C              31     -0.00149              0.00037              0.00030         *
 * C              32     -0.00002             -0.00060             -0.00527         *
 *                                                                                  *
 ************************************************************************************
  
 +------------+-------------+-------------+-----------------+ <-- min LBFGS
 |    Step    |   lambda    |   F.delta'  |    enthalpy     | <-- min LBFGS
 +------------+-------------+-------------+-----------------+ <-- min LBFGS
 |  previous  |    0.000000 |    0.237681 |    -5206.390198 | <-- min LBFGS
 | trial step |    1.000000 |    0.073940 |    -5206.394842 | <-- min LBFGS
 |  line step |    1.451566 |    0.003651 |    -5206.395496 | <-- min LBFGS
 +------------+-------------+-------------+-----------------+ <-- min LBFGS
  
 LBFGS: finished iteration     2 with enthalpy= -5.20639550E+003 eV
  
 +-----------+-----------------+-----------------+------------+-----+ <-- LBFGS
 | Parameter |      value      |    tolerance    |    units   | OK? | <-- LBFGS
 +-----------+-----------------+-----------------+------------+-----+ <-- LBFGS
 |  dE/ion   |   1.558349E-004 |   2.000000E-005 |         eV | No  | <-- LBFGS
 |  |F|max   |   1.025804E-001 |   1.000000E-002 |       eV/A | No  | <-- LBFGS
 |  |dR|max  |   8.392545E-003 |   1.000000E-003 |          A | No  | <-- LBFGS
 +-----------+-----------------+-----------------+------------+-----+ <-- LBFGS
  

================================================================================
 Starting LBFGS iteration          3 ...
================================================================================
  
 +------------+-------------+-------------+-----------------+ <-- min LBFGS
 |    Step    |   lambda    |   F.delta'  |    enthalpy     | <-- min LBFGS
 +------------+-------------+-------------+-----------------+ <-- min LBFGS
 |  previous  |    0.000000 |    0.105412 |    -5206.395496 | <-- min LBFGS
 +------------+-------------+-------------+-----------------+ <-- min LBFGS
  

--------------------------------------------------------------------------------
 LBFGS: starting iteration         3 with trial guess (lambda=  1.000000)
--------------------------------------------------------------------------------
 
                           -------------------------------
                                     Cell Contents
                           -------------------------------
 
            xxxxxxxxxxxxxxxxxxxxxxxxxxxxxxxxxxxxxxxxxxxxxxxxxxxxxxxxxxxxxxxxx
            x  Element         Atom        Fractional coordinates of atoms  x
            x                 Number           u          v          w      x
            x---------------------------------------------------------------x
            x  H                 1         0.570632   0.389891   0.635918   x
            x  H                 2         0.617513   0.476973   0.640441   x
            x  C                 1         0.166466   0.083152   0.500002   x
            x  C                 2        -0.000097  -0.000146   0.500003   x
            x  C                 3         0.166442   0.333245   0.500003   x
            x  C                 4        -0.000172   0.249810   0.500002   x
            x  C                 5         0.166508   0.583420   0.500003   x
            x  C                 6        -0.000112   0.499950   0.500004   x
            x  C                 7         0.166523   0.833432   0.500003   x
            x  C                 8        -0.000060   0.750067   0.500003   x
            x  C                 9         0.416548   0.083125   0.500001   x
            x  C                10         0.249871  -0.000202   0.500002   x
            x  C                11         0.416596   0.333311   0.499965   x
            x  C                12         0.249839   0.249827   0.500000   x
            x  C                13         0.416651   0.583474   0.499998   x
            x  C                14         0.249883   0.499986   0.500003   x
            x  C                15         0.416645   0.833486   0.500003   x
            x  C                16         0.249944   0.750124   0.500002   x
            x  C                17         0.666725   0.083212   0.500002   x
            x  C                18         0.500019  -0.000158   0.500002   x
            x  C                19         0.666808   0.333371   0.499960   x
            x  C                20         0.500028   0.249872   0.499979   x
            x  C                21         0.666821   0.583503   0.499942   x
            x  C                22         0.500073   0.500054   0.499945   x
            x  C                23         0.666793   0.833538   0.500003   x
            x  C                24         0.500112   0.750196   0.500003   x
            x  C                25         0.916728   0.083266   0.500002   x
            x  C                26         0.750144  -0.000098   0.500003   x
            x  C                27         0.916779   0.333379   0.500003   x
            x  C                28         0.750161   0.249914   0.499999   x
            x  C                29         0.916830   0.583515   0.499997   x
            x  C                30         0.750226   0.500090   0.499941   x
            x  C                31         0.916771   0.833486   0.500003   x
            x  C                32         0.750200   0.750184   0.499997   x
            xxxxxxxxxxxxxxxxxxxxxxxxxxxxxxxxxxxxxxxxxxxxxxxxxxxxxxxxxxxxxxxxx
 
 
------------------------------------------------------------------------ <-- SCF
SCF loop      Energy           Fermi           Energy gain       Timer   <-- SCF
                               energy          per atom          (sec)   <-- SCF
------------------------------------------------------------------------ <-- SCF
Initial  -5.20364203E+003  0.00000000E+000                       239.05  <-- SCF
      1  -5.20364359E+003 -2.41016294E+000   4.58934722E-005     244.48  <-- SCF
      2  -5.20364359E+003 -2.41016296E+000   3.54910556E-008     248.19  <-- SCF
      3  -5.20364359E+003 -2.41020506E+000  -3.38314200E-008     252.81  <-- SCF
      4  -5.20364359E+003 -2.41026022E+000   1.76552681E-008     256.99  <-- SCF
------------------------------------------------------------------------ <-- SCF
 
Final energy, E             =  -5203.639751965     eV
Final free energy (E-TS)    =  -5203.643589964     eV
(energies not corrected for finite basis set)
 
NB est. 0K energy (E-0.5TS)      =  -5203.641670964     eV
 
(SEDC) Total Energy Correction : -0.275201E+01 eV

Dispersion corrected final energy*, Ecor          =  -5206.391761588     eV
Dispersion corrected final free energy* (Ecor-TS) =  -5206.395599587     eV
NB dispersion corrected est. 0K energy* (Ecor-0.5TS) =  -5206.393680587     eV
 
 ************************************** Forces **************************************
 *                                                                                  *
 *                           Cartesian components (eV/A)                            *
 * -------------------------------------------------------------------------------- *
 *                         x                    y                    z              *
 *                                                                                  *
 * H               1      0.00178              0.01380              0.10322         *
 * H               2     -0.00176             -0.02557              0.08896         *
 * C               1      0.00023              0.00072              0.00012         *
 * C               2      0.00139             -0.00020              0.00088         *
 * C               3     -0.00170              0.00132              0.00011         *
 * C               4      0.00090             -0.00049              0.00041         *
 * C               5     -0.00352              0.00195              0.00122         *
 * C               6     -0.00169              0.00071              0.00091         *
 * C               7     -0.00409              0.00046              0.00073         *
 * C               8     -0.00308              0.00053              0.00040         *
 * C               9      0.00198             -0.00030             -0.00167         *
 * C              10     -0.00034              0.00009             -0.00011         *
 * C              11     -0.00010              0.00134             -0.02316         *
 * C              12     -0.00121              0.00137             -0.00331         *
 * C              13     -0.00221              0.00116             -0.00598         *
 * C              14     -0.00321              0.00173              0.00056         *
 * C              15     -0.00243             -0.00016              0.00050         *
 * C              16     -0.00430              0.00159              0.00005         *
 * C              17      0.00446             -0.00149              0.00015         *
 * C              18      0.00271             -0.00069             -0.00017         *
 * C              19      0.00397              0.00027             -0.02594         *
 * C              20      0.00227              0.00101             -0.01596         *
 * C              21      0.00095              0.00009             -0.03654         *
 * C              22     -0.00054              0.00180             -0.03408         *
 * C              23     -0.00016             -0.00070              0.00036         *
 * C              24     -0.00215              0.00056             -0.00001         *
 * C              25      0.00304             -0.00044              0.00001         *
 * C              26      0.00397             -0.00102              0.00095         *
 * C              27      0.00179             -0.00001              0.00018         *
 * C              28      0.00399             -0.00124             -0.00400         *
 * C              29     -0.00077              0.00138             -0.00634         *
 * C              30      0.00163              0.00056             -0.03651         *
 * C              31     -0.00146              0.00027              0.00032         *
 * C              32     -0.00035             -0.00043             -0.00626         *
 *                                                                                  *
 ************************************************************************************
  
 +------------+-------------+-------------+-----------------+ <-- min LBFGS
 |    Step    |   lambda    |   F.delta'  |    enthalpy     | <-- min LBFGS
 +------------+-------------+-------------+-----------------+ <-- min LBFGS
 |  previous  |    0.000000 |    0.105412 |    -5206.395496 | <-- min LBFGS
 | trial step |    1.000000 |    0.103824 |    -5206.395600 | <-- min LBFGS
 +------------+-------------+-------------+-----------------+ <-- min LBFGS
  

--------------------------------------------------------------------------------
 LBFGS: improving iteration         3 with line minimization (lambda= 66.376978)
--------------------------------------------------------------------------------
 
                           -------------------------------
                                     Cell Contents
                           -------------------------------
 
            xxxxxxxxxxxxxxxxxxxxxxxxxxxxxxxxxxxxxxxxxxxxxxxxxxxxxxxxxxxxxxxxx
            x  Element         Atom        Fractional coordinates of atoms  x
            x                 Number           u          v          w      x
            x---------------------------------------------------------------x
            x  H                 1         0.569942   0.388479   0.638867   x
            x  H                 2         0.617792   0.477563   0.643203   x
            x  C                 1         0.166484   0.083182   0.500000   x
            x  C                 2        -0.000027  -0.000172   0.500020   x
            x  C                 3         0.166346   0.333324   0.500005   x
            x  C                 4        -0.000141   0.249757   0.500006   x
            x  C                 5         0.166351   0.583570   0.500026   x
            x  C                 6        -0.000217   0.500004   0.500032   x
            x  C                 7         0.166247   0.833438   0.500017   x
            x  C                 8        -0.000256   0.750095   0.500018   x
            x  C                 9         0.416655   0.083071   0.499958   x
            x  C                10         0.249793  -0.000252   0.499992   x
            x  C                11         0.416605   0.333403   0.499274   x
            x  C                12         0.249770   0.249930   0.499920   x
            x  C                13         0.416551   0.583560   0.499851   x
            x  C                14         0.249730   0.500110   0.500019   x
            x  C                15         0.416470   0.833464   0.500011   x
            x  C                16         0.249719   0.750260   0.499999   x
            x  C                17         0.666971   0.083100   0.500002   x
            x  C                18         0.500175  -0.000244   0.499991   x
            x  C                19         0.667124   0.333415   0.499180   x
            x  C                20         0.500231   0.249966   0.499531   x
            x  C                21         0.666916   0.583516   0.498843   x
            x  C                22         0.500124   0.500235   0.498905   x
            x  C                23         0.666767   0.833508   0.500014   x
            x  C                24         0.499983   0.750237   0.500003   x
            x  C                25         0.916918   0.083228   0.499998   x
            x  C                26         0.750391  -0.000161   0.500021   x
            x  C                27         0.916893   0.333370   0.500008   x
            x  C                28         0.750403   0.249818   0.499902   x
            x  C                29         0.916852   0.583642   0.499843   x
            x  C                30         0.750398   0.500167   0.498824   x
            x  C                31         0.916697   0.833517   0.500012   x
            x  C                32         0.750181   0.750149   0.499843   x
            xxxxxxxxxxxxxxxxxxxxxxxxxxxxxxxxxxxxxxxxxxxxxxxxxxxxxxxxxxxxxxxxx
 
 
------------------------------------------------------------------------ <-- SCF
SCF loop      Energy           Fermi           Energy gain       Timer   <-- SCF
                               energy          per atom          (sec)   <-- SCF
------------------------------------------------------------------------ <-- SCF
Initial  -5.20239298E+003  0.00000000E+000                       261.43  <-- SCF
      1  -5.20364024E+003 -2.40929061E+000   3.66841576E-002     266.02  <-- SCF
      2  -5.20364985E+003 -2.40943086E+000   2.82838342E-004     272.71  <-- SCF
      3  -5.20364226E+003 -2.40902004E+000  -2.23484194E-004     278.92  <-- SCF
      4  -5.20364284E+003 -2.40894735E+000   1.70375200E-005     284.65  <-- SCF
      5  -5.20364285E+003 -2.40895526E+000   2.97468938E-007     289.58  <-- SCF
      6  -5.20364285E+003 -2.40896598E+000   1.22485200E-007     294.46  <-- SCF
------------------------------------------------------------------------ <-- SCF
 
Final energy, E             =  -5203.639001688     eV
Final free energy (E-TS)    =  -5203.642849516     eV
(energies not corrected for finite basis set)
 
NB est. 0K energy (E-0.5TS)      =  -5203.640925602     eV
 
(SEDC) Total Energy Correction : -0.274919E+01 eV

Dispersion corrected final energy*, Ecor          =  -5206.388189051     eV
Dispersion corrected final free energy* (Ecor-TS) =  -5206.392036880     eV
NB dispersion corrected est. 0K energy* (Ecor-0.5TS) =  -5206.390112965     eV
 
 ************************************** Forces **************************************
 *                                                                                  *
 *                           Cartesian components (eV/A)                            *
 * -------------------------------------------------------------------------------- *
 *                         x                    y                    z              *
 *                                                                                  *
 * H               1      0.02458              0.54749              0.13983         *
 * H               2     -0.02424             -0.55450              0.00814         *
 * C               1      0.01045              0.02037              0.00546         *
 * C               2      0.00215              0.01001              0.01265         *
 * C               3      0.03752              0.01525             -0.00373         *
 * C               4     -0.00576              0.01610              0.01035         *
 * C               5      0.02459             -0.01408              0.02107         *
 * C               6      0.03288             -0.00927             -0.00625         *
 * C               7      0.03668              0.02306              0.00943         *
 * C               8      0.02986              0.00784             -0.01017         *
 * C               9     -0.01807              0.02680             -0.01789         *
 * C              10      0.03793              0.05299              0.00667         *
 * C              11      0.02933             -0.00165              0.00152         *
 * C              12      0.04906             -0.00769             -0.03845         *
 * C              13      0.01052             -0.00975             -0.06201         *
 * C              14      0.02328             -0.00378             -0.00283         *
 * C              15      0.01591              0.00752              0.00756         *
 * C              16      0.03898             -0.02174              0.00102         *
 * C              17     -0.03820              0.00816              0.00437         *
 * C              18     -0.03692              0.03731              0.00487         *
 * C              19     -0.05233             -0.02483              0.01380         *
 * C              20     -0.02347             -0.02334             -0.05416         *
 * C              21     -0.03286             -0.00250              0.02143         *
 * C              22     -0.00105             -0.04794              0.05032         *
 * C              23     -0.00215             -0.01744             -0.00510         *
 * C              24      0.02289              0.00167             -0.00733         *
 * C              25     -0.03049              0.01016              0.00071         *
 * C              26     -0.04144             -0.00727              0.01402         *
 * C              27     -0.00836              0.01374             -0.00469         *
 * C              28     -0.05570              0.00888             -0.04434         *
 * C              29     -0.00175             -0.02759             -0.06580         *
 * C              30     -0.03299             -0.03443              0.05847         *
 * C              31      0.00056             -0.00770             -0.00476         *
 * C              32     -0.02140              0.00817             -0.06418         *
 *                                                                                  *
 ************************************************************************************
  
 +------------+-------------+-------------+-----------------+ <-- min LBFGS
 |    Step    |   lambda    |   F.delta'  |    enthalpy     | <-- min LBFGS
 +------------+-------------+-------------+-----------------+ <-- min LBFGS
 |  previous  |    0.000000 |    0.105412 |    -5206.395496 | <-- min LBFGS
 | trial step |    1.000000 |    0.103824 |    -5206.395600 | <-- min LBFGS
 |  line step |   66.376978 |   -0.031269 |    -5206.392037 | <-- min LBFGS
 +------------+-------------+-------------+-----------------+ <-- min LBFGS
  
 LBFGS: reverting to earlier configuration
 
                           -------------------------------
                                     Cell Contents
                           -------------------------------
 
            xxxxxxxxxxxxxxxxxxxxxxxxxxxxxxxxxxxxxxxxxxxxxxxxxxxxxxxxxxxxxxxxx
            x  Element         Atom        Fractional coordinates of atoms  x
            x                 Number           u          v          w      x
            x---------------------------------------------------------------x
            x  H                 1         0.570632   0.389891   0.635918   x
            x  H                 2         0.617513   0.476973   0.640441   x
            x  C                 1         0.166466   0.083152   0.500002   x
            x  C                 2        -0.000097  -0.000146   0.500003   x
            x  C                 3         0.166442   0.333245   0.500003   x
            x  C                 4        -0.000172   0.249810   0.500002   x
            x  C                 5         0.166508   0.583420   0.500003   x
            x  C                 6        -0.000112   0.499950   0.500004   x
            x  C                 7         0.166523   0.833432   0.500003   x
            x  C                 8        -0.000060   0.750067   0.500003   x
            x  C                 9         0.416548   0.083125   0.500001   x
[...]
      C    12      Pz                   1.000
      C    13      S                    1.028
      C    13      Px                   0.986
      C    13      Py                   0.986
      C    13      Pz                   1.000
      C    14      S                    1.028
      C    14      Px                   0.986
      C    14      Py                   0.986
      C    14      Pz                   1.000
      C    15      S                    1.027
      C    15      Px                   0.986
      C    15      Py                   0.986
      C    15      Pz                   1.000
      C    16      S                    1.028
      C    16      Px                   0.986
      C    16      Py                   0.986
      C    16      Pz                   1.000
      C    17      S                    1.028
      C    17      Px                   0.986
      C    17      Py                   0.986
      C    17      Pz                   1.000
      C    18      S                    1.027
      C    18      Px                   0.986
      C    18      Py                   0.987
      C    18      Pz                   1.000
      C    19      S                    1.028
      C    19      Px                   0.986
      C    19      Py                   0.986
      C    19      Pz                   1.000
      C    20      S                    1.028
      C    20      Px                   0.986
      C    20      Py                   0.986
      C    20      Pz                   1.001
      C    21      S                    1.027
      C    21      Px                   0.986
      C    21      Py                   0.986
      C    21      Pz                   1.000
      C    22      S                    1.028
      C    22      Px                   0.986
      C    22      Py                   0.986
      C    22      Pz                   1.000
      C    23      S                    1.027
      C    23      Px                   0.986
      C    23      Py                   0.987
      C    23      Pz                   1.000
      C    24      S                    1.028
      C    24      Px                   0.986
      C    24      Py                   0.986
      C    24      Pz                   1.000
      C    25      S                    1.027
      C    25      Px                   0.987
      C    25      Py                   0.987
      C    25      Pz                   1.001
      C    26      S                    1.027
      C    26      Px                   0.986
      C    26      Py                   0.987
      C    26      Pz                   1.000
      C    27      S                    1.027
      C    27      Px                   0.986
      C    27      Py                   0.987
      C    27      Pz                   1.000
      C    28      S                    1.028
      C    28      Px                   0.986
      C    28      Py                   0.986
      C    28      Pz                   1.000
      C    29      S                    1.027
      C    29      Px                   0.986
      C    29      Py                   0.987
      C    29      Pz                   1.000
      C    30      S                    1.028
      C    30      Px                   0.986
      C    30      Py                   0.986
      C    30      Pz                   0.999
      C    31      S                    1.026
      C    31      Px                   0.987
      C    31      Py                   0.987
      C    31      Pz                   1.000
      C    32      S                    1.028
      C    32      Px                   0.986
      C    32      Py                   0.986
      C    32      Pz                   1.000
  -------------------------------------------
                           Total:     129.997
  -------------------------------------------
 
     Atomic Populations (Mulliken)
     -----------------------------
Species          Ion     s       p       d       f      Total   Charge (e)
==========================================================================
  H               1     1.000   0.000   0.000   0.000   1.000    -0.000
  H               2     0.997   0.000   0.000   0.000   0.997     0.003
  C               1     1.027   2.973   0.000   0.000   4.000    -0.000
  C               2     1.026   2.974   0.000   0.000   4.000    -0.000
  C               3     1.028   2.972   0.000   0.000   4.000     0.000
  C               4     1.027   2.973   0.000   0.000   4.000    -0.000
  C               5     1.028   2.972   0.000   0.000   3.999     0.001
  C               6     1.027   2.973   0.000   0.000   4.000    -0.000
  C               7     1.027   2.973   0.000   0.000   4.000     0.000
  C               8     1.027   2.973   0.000   0.000   4.000    -0.000
  C               9     1.028   2.973   0.000   0.000   4.000    -0.000
  C              10     1.027   2.973   0.000   0.000   4.001    -0.001
  C              11     1.028   2.972   0.000   0.000   4.000     0.000
  C              12     1.028   2.972   0.000   0.000   4.000    -0.000
  C              13     1.028   2.972   0.000   0.000   4.000     0.000
  C              14     1.028   2.972   0.000   0.000   4.000     0.000
  C              15     1.027   2.973   0.000   0.000   4.000     0.000
  C              16     1.028   2.972   0.000   0.000   4.000    -0.000
  C              17     1.028   2.972   0.000   0.000   4.000    -0.000
  C              18     1.027   2.973   0.000   0.000   4.000    -0.000
  C              19     1.028   2.972   0.000   0.000   4.000    -0.000
  C              20     1.028   2.972   0.000   0.000   4.000    -0.000
  C              21     1.027   2.972   0.000   0.000   4.000     0.000
  C              22     1.028   2.971   0.000   0.000   3.999     0.001
  C              23     1.027   2.973   0.000   0.000   4.000    -0.000
  C              24     1.028   2.972   0.000   0.000   4.000    -0.000
  C              25     1.027   2.974   0.000   0.000   4.000    -0.000
  C              26     1.027   2.973   0.000   0.000   4.000     0.000
  C              27     1.027   2.973   0.000   0.000   4.000    -0.000
  C              28     1.028   2.972   0.000   0.000   4.000     0.000
  C              29     1.027   2.973   0.000   0.000   4.000     0.000
  C              30     1.028   2.972   0.000   0.000   3.999     0.001
  C              31     1.026   2.974   0.000   0.000   4.000    -0.000
  C              32     1.028   2.973   0.000   0.000   4.000    -0.000
==========================================================================
 
                 Bond                   Population      Length (A)
======================================================================
               H 1 -- H 2                    0.88        0.75102
              C 23 -- C 26                   1.07        1.42325
              C 15 -- C 18                   1.07        1.42340
              C 2  -- C 31                   1.07        1.42343
              C 7  -- C 10                   1.07        1.42353
              C 8  -- C 29                   1.07        1.42493
              C 8  -- C 31                   1.07        1.42503
              C 4  -- C 25                   1.07        1.42504
              C 6  -- C 27                   1.07        1.42507
              C 2  -- C 25                   1.07        1.42521
              C 1  -- C 2                    1.07        1.42528
              C 25 -- C 26                   1.07        1.42534
              C 6  -- C 29                   1.07        1.42537
              C 3  -- C 4                    1.07        1.42561
              C 31 -- C 32                   1.07        1.42567
              C 7  -- C 8                    1.07        1.42573
              C 4  -- C 27                   1.07        1.42578
              C 5  -- C 6                    1.07        1.42579
              C 21 -- C 32                   1.07        1.42585
              C 27 -- C 28                   1.07        1.42588
              C 29 -- C 30                   1.07        1.42608
              C 1  -- C 12                   1.07        1.42616
              C 5  -- C 16                   1.07        1.42616
              C 13 -- C 24                   1.07        1.42626
              C 17 -- C 28                   1.07        1.42627
              C 9  -- C 10                   1.07        1.42641
              C 7  -- C 16                   1.07        1.42642
              C 1  -- C 10                   1.07        1.42644
              C 3  -- C 14                   1.07        1.42648
              C 23 -- C 24                   1.07        1.42650
              C 19 -- C 30                   1.07        1.42650
              C 15 -- C 16                   1.07        1.42657
              C 17 -- C 26                   1.07        1.42662
              C 9  -- C 20                   1.07        1.42663
              C 9  -- C 18                   1.07        1.42664
              C 17 -- C 18                   1.07        1.42667
              C 11 -- C 22                   1.07        1.42671
              C 23 -- C 32                   1.07        1.42674
              C 11 -- C 12                   1.07        1.42684
              C 21 -- C 30                   1.07        1.42697
              C 19 -- C 28                   1.07        1.42698
              C 13 -- C 14                   1.07        1.42704
              C 21 -- C 22                   1.07        1.42705
              C 15 -- C 24                   1.07        1.42710
              C 19 -- C 20                   1.07        1.42726
              C 3  -- C 12                   1.07        1.42734
              C 11 -- C 20                   1.07        1.42746
              C 5  -- C 14                   1.07        1.42752
              C 13 -- C 22                   1.07        1.42765
              C 9  -- C 15                  -0.18        2.46644
              C 1  -- C 31                  -0.18        2.46676
              C 18 -- C 24                  -0.18        2.46705
              C 5  -- C 29                  -0.18        2.46710
              C 17 -- C 23                  -0.18        2.46711
              C 2  -- C 32                  -0.18        2.46717
              C 1  -- C 7                   -0.18        2.46728
              C 3  -- C 27                  -0.18        2.46734
              C 26 -- C 32                  -0.18        2.46737
              C 4  -- C 28                  -0.18        2.46742
              C 10 -- C 16                  -0.18        2.46742
              C 2  -- C 26                  -0.18        2.46745
              C 6  -- C 30                  -0.18        2.46747
              C 7  -- C 31                  -0.18        2.46767
              C 1  -- C 25                  -0.18        2.46782
              C 8  -- C 32                  -0.18        2.46788
              C 2  -- C 8                   -0.18        2.46797
              C 4  -- C 26                  -0.18        2.46807
              C 25 -- C 31                  -0.18        2.46807
              C 7  -- C 29                  -0.18        2.46824
              C 23 -- C 25                  -0.18        2.46836
              C 7  -- C 9                   -0.18        2.46844
              C 3  -- C 25                  -0.18        2.46846
              C 5  -- C 27                  -0.18        2.46860
              C 8  -- C 10                  -0.18        2.46863
              C 8  -- C 30                  -0.18        2.46875
              C 6  -- C 28                  -0.18        2.46875
              C 24 -- C 26                  -0.18        2.46884
              C 17 -- C 25                  -0.18        2.46942
              C 15 -- C 17                  -0.18        2.46945
              C 16 -- C 18                  -0.18        2.46948
              C 2  -- C 12                  -0.18        2.46962
              C 8  -- C 16                  -0.18        2.46966
              C 19 -- C 27                  -0.18        2.46967
              C 21 -- C 31                  -0.18        2.46975
              C 2  -- C 10                  -0.18        2.46977
              C 29 -- C 31                  -0.18        2.46980
              C 21 -- C 29                  -0.18        2.46994
              C 4  -- C 12                  -0.18        2.46995
              C 23 -- C 31                  -0.18        2.47001
              C 5  -- C 7                   -0.18        2.47002
              C 2  -- C 4                   -0.18        2.47002
              C 6  -- C 14                  -0.18        2.47010
              C 10 -- C 12                  -0.18        2.47010
              C 18 -- C 20                  -0.18        2.47019
              C 13 -- C 15                  -0.18        2.47024
              C 21 -- C 23                  -0.18        2.47041
              C 26 -- C 28                  -0.18        2.47057
              C 7  -- C 15                  -0.18        2.47067
              C 6  -- C 8                   -0.17        2.47068
              C 10 -- C 20                  -0.18        2.47070
              C 30 -- C 32                  -0.17        2.47075
              C 18 -- C 28                  -0.18        2.47079
              C 24 -- C 32                  -0.18        2.47090
              C 17 -- C 27                  -0.17        2.47092
              C 27 -- C 29                  -0.17        2.47093
              C 4  -- C 14                  -0.18        2.47096
              C 6  -- C 16                  -0.18        2.47097
              C 22 -- C 30                  -0.17        2.47101
              C 13 -- C 23                  -0.18        2.47102
              C 5  -- C 15                  -0.18        2.47104
              C 18 -- C 26                  -0.18        2.47106
              C 19 -- C 29                  -0.17        2.47107
              C 17 -- C 19                  -0.18        2.47110
              C 1  -- C 9                   -0.18        2.47117
              C 1  -- C 3                   -0.18        2.47119
              C 25 -- C 27                  -0.17        2.47120
              C 14 -- C 16                  -0.18        2.47120
              C 22 -- C 32                  -0.18        2.47121
              C 20 -- C 28                  -0.18        2.47121
              C 22 -- C 24                  -0.18        2.47127
              C 12 -- C 14                  -0.18        2.47127
              C 1  -- C 11                  -0.18        2.47127
              C 3  -- C 11                  -0.18        2.47130
              C 28 -- C 30                  -0.17        2.47131
              C 5  -- C 13                  -0.18        2.47132
              C 4  -- C 6                   -0.17        2.47133
              C 19 -- C 21                  -0.17        2.47139
              C 12 -- C 20                  -0.18        2.47142
              C 14 -- C 22                  -0.18        2.47143
              C 20 -- C 22                  -0.17        2.47150
              C 3  -- C 5                   -0.18        2.47151
              C 9  -- C 11                  -0.18        2.47156
              C 16 -- C 24                  -0.18        2.47156
              C 9  -- C 17                  -0.18        2.47159
              C 13 -- C 21                  -0.18        2.47164
              C 15 -- C 23                  -0.17        2.47165
              C 11 -- C 19                  -0.17        2.47169
              C 10 -- C 18                  -0.17        2.47172
              C 11 -- C 13                  -0.18        2.47176
              C 20 -- C 30                  -0.17        2.47193
              C 12 -- C 22                  -0.17        2.47201
              C 14 -- C 24                  -0.18        2.47213
              C 3  -- C 13                  -0.17        2.47216
              C 11 -- C 21                  -0.17        2.47222
              C 9  -- C 19                  -0.17        2.47225
              C 9  -- C 16                  -0.10        2.84927
              C 26 -- C 31                  -0.10        2.84938
              C 2  -- C 7                   -0.10        2.84954
              C 4  -- C 17                  -0.10        2.84963
              C 17 -- C 24                  -0.10        2.84970
              C 6  -- C 19                  -0.10        2.84978
              C 16 -- C 29                  -0.10        2.84987
              C 10 -- C 31                  -0.10        2.84989
              C 14 -- C 27                  -0.10        2.84992
              C 2  -- C 23                  -0.10        2.84993
              C 12 -- C 25                  -0.10        2.84998
              C 18 -- C 23                  -0.10        2.85000
              C 8  -- C 21                  -0.10        2.85001
              C 1  -- C 8                   -0.10        2.85001
              C 10 -- C 15                  -0.10        2.85007
              C 25 -- C 32                  -0.10        2.85034
              C 5  -- C 8                   -0.10        2.85102
              C 25 -- C 28                  -0.10        2.85145
              C 29 -- C 32                  -0.10        2.85166
              C 27 -- C 30                  -0.10        2.85169
              C 3  -- C 6                   -0.10        2.85181
              C 1  -- C 4                   -0.10        2.85186
              C 13 -- C 16                  -0.10        2.85244
              C 21 -- C 24                  -0.10        2.85276
              C 11 -- C 14                  -0.10        2.85279
              C 2  -- C 3                   -0.10        2.85280
              C 17 -- C 20                  -0.10        2.85284
              C 30 -- C 31                  -0.10        2.85285
              C 19 -- C 22                  -0.10        2.85297
              C 9  -- C 12                  -0.10        2.85311
              C 10 -- C 11                  -0.10        2.85312
              C 18 -- C 19                  -0.10        2.85341
              C 6  -- C 7                   -0.10        2.85350
              C 7  -- C 18                  -0.10        2.85363
              C 22 -- C 23                  -0.10        2.85363
              C 13 -- C 32                  -0.10        2.85366
              C 1  -- C 20                  -0.10        2.85370
              C 14 -- C 15                  -0.10        2.85379
              C 15 -- C 26                  -0.10        2.85384
              C 26 -- C 27                  -0.10        2.85386
              C 11 -- C 30                  -0.10        2.85414
              C 9  -- C 28                  -0.10        2.85420
              C 3  -- C 22                  -0.10        2.85433
              C 28 -- C 29                  -0.10        2.85441
              C 5  -- C 24                  -0.10        2.85443
              C 4  -- C 5                   -0.10        2.85453
              C 20 -- C 21                  -0.10        2.85485
              C 12 -- C 13                  -0.10        2.85493
======================================================================
 

Writing analysis data to 4x4.castep_bin

Writing model to 4x4.check
 
 A BibTeX formatted list of references used in this run has been written to 
 4x4.bib
 
Initialisation time =      2.95 s
Calculation time    =  15655.56 s
Finalisation time   =      1.86 s
Total time          =  15660.37 s
Peak Memory Use     = 1024964 kB
  
Overall parallel efficiency rating: Mediocre (53%)                              
  
Data was distributed by:-
G-vector (16-way); efficiency rating: Mediocre (54%)                            
k-point (8-way); efficiency rating: Excellent (95%)                             
