 +-------------------------------------------------+
 |                                                 |
 |      CCC   AA    SSS  TTTTT  EEEEE  PPPP        |
 |     C     A  A  S       T    E      P   P       |
 |     C     AAAA   SS     T    EEE    PPPP        |
 |     C     A  A     S    T    E      P           |
 |      CCC  A  A  SSS     T    EEEEE  P           |
 |                                                 |
 +-------------------------------------------------+
 |                                                 |
 | Welcome to Academic Release CASTEP version 21.11|          
 | Ab Initio Total Energy Program                  |
 |                                                 |
 | Authors:                                        |
 | M. Segall, M. Probert, C. Pickard, P. Hasnip,   |
 | S. Clark, K. Refson, J. R. Yates, M. Payne      |
 |                                                 |
 | Contributors:                                   |
 | P. Lindan, P. Haynes, J. White, V. Milman,      |
 | N. Govind, M. Gibson, P. Tulip, V. Cocula,      |
 | B. Montanari, D. Quigley, M. Glover,            |
 | L. Bernasconi, A. Perlov, M. Plummer,           |
 | E. McNellis, J. Meyer, J. Gale, D. Jochym       |
 | J. Aarons, B. Walker, R. Gillen, D. Jones       |
 | T. Green, I. J. Bush, C. J. Armstrong,          |
 | E. J. Higgins, E. L. Brown, M. S. McFly,        |
 | J. Wilkins, B-C. Shih, P. J. P. Byrne,          |
 | R. J. Maurer, J. C. Womack, J. Dziedzic,        |
 | A. Bartok-Partay, L. LeBlanc                    |
 |                                                 |
 | Copyright (c) 2000 - 2021                       |
 |                                                 |
 |     Distributed under license from Cambridge    |
 |     Enterprise for academic use only.           |
 |                                                 |
 | Please cite                                     |
 |                                                 |
 |     "First principles methods using CASTEP"     |
 |                                                 |
 |         Zeitschrift fuer Kristallographie       |
 |           220(5-6) pp. 567-570 (2005)           |
 |                                                 |
 | S. J. Clark, M. D. Segall, C. J. Pickard,       |
 | P. J. Hasnip, M. J. Probert, K. Refson,         |
 | M. C. Payne                                     |
 |                                                 |
 |       in all publications arising from          |
 |              your use of CASTEP                 |
 |                                                 |
 +-------------------------------------------------+
 |                                                 |
 |              http://www.castep.org              |
 |                                                 |
 +-------------------------------------------------+
 
 
 
 Compiled for linux_x86_64_cray-XT on Tue, 01 Mar 2022 09:19:15 +0000
 from code version 7d4405a8a+  HEAD  Sat Nov 27 13:38:33 2021 +0000
 Compiler: Cray Fortran 12.0.3; Optimisation: fast
 MATHLIBS: LibSci (LAPACK version 3.6.1)
 FFT Lib : fftw3 version commercial-fftw-3.3.8-sse2-avx-avx2-avx2_128
 Fundamental constants values: CODATA 2014
 
 Run started: Thu, 27 Oct 2022 16:04:40 -0100
 
 Atomic calculation performed for H: 1s1
 
 Converged in 41 iterations to an ae energy of -12.488 eV
 
   ============================================================                
   | Pseudopotential Report - Date of generation 27-10-2022   |                
   ------------------------------------------------------------                
   | Element: H Ionic charge:  1.00 Level of theory: PBE      |                
   | Atomic Solver: Koelling-Harmon                           |                
   |                                                          |                
   |               Reference Electronic Structure             |                
   |         Orbital         Occupation         Energy        |                
   |            1s              1.000           -0.239        |                
   |                                                          |                
   |                 Pseudopotential Definition               |                
   |        Beta     l      e      Rc     scheme   norm       |                
   |          1      0   -0.239   0.599     qc      0         |                
   |          2      0    0.250   0.599     qc      0         |                
   |         loc     1    0.000   0.599     pn      0         |                
   |                                                          |                
   | Augmentation charge Rinner = 0.421                       |                
   | No partial core correction                               |                
   ------------------------------------------------------------                
   | "1|0.6|13|15|17|10(qc=8)"                                |                
   ------------------------------------------------------------                
   |      Author: Chris J. Pickard, Cambridge University      |                
   ============================================================                
 
 Atomic calculation performed for C: 1s2 2s2 2p2
 
 Converged in 54 iterations to an ae energy of -1027.632 eV
 
   ============================================================                
   | Pseudopotential Report - Date of generation 27-10-2022   |                
   ------------------------------------------------------------                
   | Element: C Ionic charge:  4.00 Level of theory: PBE      |                
   | Atomic Solver: Koelling-Harmon                           |                
   |                                                          |                
   |               Reference Electronic Structure             |                
   |         Orbital         Occupation         Energy        |                
   |            2s              2.000           -0.505        |                
   |            2p              2.000           -0.194        |                
   |                                                          |                
   |                 Pseudopotential Definition               |                
   |        Beta     l      e      Rc     scheme   norm       |                
   |          1      0   -0.505   1.201     qc      1         |                
   |         loc     1   -0.194   1.201     qc      1         |                
   |                                                          |                
   | No charge augmentation                                   |                
   | Partial core correction Rc = 0.839                       |                
   ------------------------------------------------------------                
   | "1|1.2|17|20|23|20N:21L(qc=8)"                           |                
   ------------------------------------------------------------                
   |      Author: Chris J. Pickard, Cambridge University      |                
   ============================================================                
 
 Pseudo atomic calculation performed for H 1s1
 
 Converged in 13 iterations to a total energy of -12.4856 eV
 
 Pseudo atomic calculation performed for C 2s2 2p2
 
 Converged in 18 iterations to a total energy of -152.4291 eV
 Calculation parallelised over 128 processes.
 Data is distributed by G-vector(16-way) and k-point(8-way)

 ************************************ Title ************************************
 

 ***************************** General Parameters ******************************
  
 output verbosity                               : normal  (1)
 write checkpoint data to                       : 4x4.check
 type of calculation                            : geometry optimization
 stress calculation                             : off
 density difference calculation                 : off
 electron localisation func (ELF) calculation   : off
 Hirshfeld analysis                             : off
 polarisation (Berry phase) analysis            : off
 molecular orbital projected DOS                : off
 deltaSCF calculation                           : off
 unlimited duration calculation
 timing information                             : on
 memory usage estimate                          : on
 write extra output files                       : on
 write final potential to formatted file        : off
 write final density to formatted file          : off
 write structure in CELL formatted file         : on
 write BibTeX reference list                    : on
 write OTFG pseudopotential files               : on
 write electrostatic potential file             : on
 write bands file                               : on
 checkpoint writing                             : both castep_bin and check files
  
 output         length unit                     : A
 output           mass unit                     : amu
 output           time unit                     : ps
 output         charge unit                     : e
 output           spin unit                     : hbar/2
 output         energy unit                     : eV
 output          force unit                     : eV/A
 output       velocity unit                     : A/ps
 output       pressure unit                     : GPa
 output     inv_length unit                     : 1/A
 output      frequency unit                     : cm-1
 output force constant unit                     : eV/A**2
 output         volume unit                     : A**3
 output   IR intensity unit                     : (D/A)**2/amu
 output         dipole unit                     : D
 output         efield unit                     : eV/A/e
 output        entropy unit                     : J/mol/K
 output    efield chi2 unit                     : pm/V
  
 wavefunctions paging                           : none
 random number generator seed                   : randomised (160440351)
 data distribution                              : optimal for this architecture
 optimization strategy                          : maximize speed(+++)

 *********************** Exchange-Correlation Parameters ***********************
  
 using functional                               : Perdew Burke Ernzerhof
 relativistic treatment                         : Koelling-Harmon
 DFT+D: Semi-empirical dispersion correction    : on
 SEDC with                                      : MBD@rsSCS method

 ************************* Pseudopotential Parameters **************************
  
 pseudopotential representation                 : reciprocal space
 <beta|phi> representation                      : reciprocal space
 spin-orbit coupling                            : off

 **************************** Basis Set Parameters *****************************
  
 plane wave basis set cut-off                   :   800.0000   eV
 size of standard grid                          :     1.7500
 size of   fine   gmax                          :    25.3584   1/A
 finite basis set correction                    : none

 **************************** Electronic Parameters ****************************
  
 number of  electrons                           :  130.0    
 net charge of system                           :  0.000    
 treating system as non-spin-polarized
 number of bands                                :         98

 ********************* Electronic Minimization Parameters **********************
  
 Method: Treating system as metallic with density mixing treatment of electrons,
         and number of  SD  steps               :          1
         and number of  CG  steps               :          4
  
 total energy / atom convergence tol.           : 0.1000E-05   eV
 eigen-energy convergence tolerance             : 0.3469E-06   eV
 max force / atom convergence tol.              : ignored
 convergence tolerance window                   :          3   cycles
 max. number of SCF cycles                      :        100
 number of fixed-spin iterations                :         10
 smearing scheme                                : Gaussian
 smearing width                                 : 0.2000       eV
 Fermi energy convergence tolerance             : 0.2721E-13   eV
 periodic dipole correction                     : NONE

 ************************** Density Mixing Parameters **************************
  
 density-mixing scheme                          : Pulay
 max. length of mixing history                  :         20
 charge density mixing amplitude                : 0.8000    
 cut-off energy for mixing                      :  800.0       eV

 *********************** Population Analysis Parameters ************************
  
 Population analysis with cutoff                :  3.000       A
 Population analysis output                     : summary and pdos components

 ********************** Geometry Optimization Parameters ***********************
  
 optimization method                            : LBFGS
 max. no. of LBFGS updates                      : unbounded
 variable cell method                           : fixed basis quality
 max. number of steps                           :        100
 estimated bulk modulus                         :  500.0       GPa
 estimated <frequency>                          :  1668.       cm-1
 geom line minimiser                            : on
 with line minimiser tolerance                  :     0.4000
 total energy convergence tolerance             : 0.2000E-04   eV/atom
        max ionic |force| tolerance             : 0.1000E-01   eV/A
 max ionic |displacement| tolerance             : 0.1000E-02   A
   max |stress component| tolerance             : 0.1000       GPa
 convergence tolerance window                   :          2   steps
 backup results every                           :          5   steps
 write geom trajectory file                     : on

 *******************************************************************************
  
 
                           -------------------------------
                                      Unit Cell
                           -------------------------------
        Real Lattice(A)                      Reciprocal Lattice(1/A)
     9.8800000     0.0000000     0.0000000        0.635949930   0.367165863   0.000000000
    -4.9400000     8.5563310     0.0000000        0.000000000   0.734331726   0.000000000
     0.0000000     0.0000000    20.0339000        0.000000000   0.000000000   0.313627666
 
                       Lattice parameters(A)       Cell Angles
                    a =      9.880000          alpha =   90.000000
                    b =      9.880000          beta  =   90.000000
                    c =     20.033900          gamma =  120.000000
 
                       Current cell volume =          1693.596795       A**3
                                   density =             0.228129   AMU/A**3
                                           =             0.378817     g/cm^3
 
                           -------------------------------
                                     Cell Contents
                           -------------------------------
                         Total number of ions in cell =   34
                      Total number of species in cell =    2
                        Max number of any one species =   32
 
            xxxxxxxxxxxxxxxxxxxxxxxxxxxxxxxxxxxxxxxxxxxxxxxxxxxxxxxxxxxx
            x  Element    Atom        Fractional coordinates of atoms  x
            x            Number           u          v          w      x
            x----------------------------------------------------------x
            x  H            1         0.543508   0.437539   0.641441   x 
            x  H            2         0.598316   0.501551   0.641894   x 
            x  C            1         0.166476   0.083155   0.500002   x 
            x  C            2        -0.000100  -0.000140   0.500002   x 
            x  C            3         0.166447   0.333239   0.500002   x 
            x  C            4        -0.000173   0.249815   0.500002   x 
            x  C            5         0.166520   0.583404   0.500002   x 
            x  C            6        -0.000108   0.499946   0.500002   x 
            x  C            7         0.166543   0.833430   0.500002   x 
            x  C            8        -0.000049   0.750064   0.500002   x 
            x  C            9         0.416557   0.083155   0.500002   x 
            x  C           10         0.249870  -0.000199   0.500002   x 
            x  C           11         0.416592   0.333285   0.500002   x 
            x  C           12         0.249853   0.249827   0.500002   x 
            x  C           13         0.416666   0.583474   0.500002   x 
            x  C           14         0.249889   0.499981   0.500002   x 
            x  C           15         0.416657   0.833476   0.500002   x 
            x  C           16         0.249960   0.750123   0.500002   x 
            x  C           17         0.666714   0.083225   0.500002   x 
            x  C           18         0.500005  -0.000152   0.500002   x 
            x  C           19         0.666769   0.333356   0.500002   x 
            x  C           20         0.500012   0.249862   0.500002   x 
            x  C           21         0.666815   0.583509   0.500002   x 
            x  C           22         0.500066   0.500051   0.500002   x 
            x  C           23         0.666788   0.833535   0.500002   x 
            x  C           24         0.500117   0.750193   0.500002   x 
            x  C           25         0.916717   0.083272   0.500002   x 
            x  C           26         0.750125  -0.000093   0.500002   x 
            x  C           27         0.916770   0.333379   0.500002   x 
            x  C           28         0.750152   0.249920   0.500002   x 
            x  C           29         0.916836   0.583509   0.500002   x 
            x  C           30         0.750215   0.500086   0.500002   x 
            x  C           31         0.916769   0.833476   0.500002   x 
            x  C           32         0.750202   0.750181   0.500002   x 
            xxxxxxxxxxxxxxxxxxxxxxxxxxxxxxxxxxxxxxxxxxxxxxxxxxxxxxxxxxxx
 
 
                         No user defined ionic velocities
 
                           -------------------------------
                                   Details of Species
                           -------------------------------
 
                               Mass of species in AMU
                                    H    1.0079400
                                    C   12.0107000
 
                          Electric Quadrupole Moment (Barn)
                                    H    0.0028600 Isotope  2
                                    C    0.0332700 Isotope 11
 
                          Files used for pseudopotentials:
                                    H 1|0.6|13|15|17|10(qc=8)
                                    C 1|1.2|17|20|23|20N:21L(qc=8)
 
                           -------------------------------
                              k-Points For BZ Sampling
                           -------------------------------
                       MP grid size for SCF calculation is  4  4  1
                            with an offset of   0.000  0.000  0.000
                       Number of kpoints used =   8
 
                           -------------------------------
                               Symmetry and Constraints
                           -------------------------------
 
                      Maximum deviation from symmetry =  0.00000         ANG
 
                      Number of symmetry operations   = 1
         There are no ionic constraints specified or generated for this cell
                      Point group of crystal =     1: C1, 1, 1
                      Space group of crystal =     1: P1, P 1
 
             Set iprint > 1 for details on symmetry rotations/translations
 
                         Centre of mass is NOT constrained
 
                         Number of cell constraints= 6
                         Cell constraints are:  0 0 0 0 0 0
 
                         External pressure/stress (GPa)
                          0.00000   0.00000   0.00000
                                    0.00000   0.00000
                                              0.00000
 
                                --------------------
                                  DFT-D parameters
                                --------------------
 
                          Dispersion-correction scheme : MBD*      
                        Parameter sR :   0.830000 (default)
 
        xxxxxxxxxxxxxxxxxxxxxxxxxxxxxxxxxxxxxxxxxxxxxxxxxxxxxxxxxxxxxxxxxxxx
        x              Atomic DFT-D parameters                             x
        x  Species      C6            alpha        R0                      x
        x               eV A^6        A^3          A                       x
        x------------------------------------------------------------------x
        x  H             3.8839       0.6668       1.6404   (default)      x
        x  C            27.8448       1.7782       1.8997   (default)      x
        xxxxxxxxxxxxxxxxxxxxxxxxxxxxxxxxxxxxxxxxxxxxxxxxxxxxxxxxxxxxxxxxxxxx
 
  
+---------------- MEMORY AND SCRATCH DISK ESTIMATES PER PROCESS --------------+
|                                                     Memory          Disk    |
| Baseline code, static data and system overhead      771.0 MB         0.0 MB |
| BLAS internal memory storage                          0.0 MB         0.0 MB |
| Model and support data                               37.8 MB         0.0 MB |
| Electronic energy minimisation requirements          62.0 MB         0.0 MB |
| Force calculation requirements                       12.6 MB         0.0 MB |
|                                               ----------------------------- |
| Approx. total storage required per process          870.7 MB         0.0 MB |
|                                                                             |
| Requirements will fluctuate during execution and may exceed these estimates |
+-----------------------------------------------------------------------------+
Calculating approximate eigenstates for fixed initial Hamiltonian
Cut-off for approx. calculation is  119.774 eV
Improving approx. states at cut-off of  462.594 eV
Resetting cut-off to  800.000 eV
Calculating total energy with cut-off of  800.000 eV.
------------------------------------------------------------------------ <-- SCF
SCF loop      Energy           Fermi           Energy gain       Timer   <-- SCF
                               energy          per atom          (sec)   <-- SCF
------------------------------------------------------------------------ <-- SCF
Initial  -4.74906071E+003  0.00000000E+000                        10.47  <-- SCF
      1  -5.21743723E+003 -5.67548490E+000   1.37757799E+001      16.14  <-- SCF
      2  -5.21765426E+003 -5.67621552E+000   6.38332662E-003      21.99  <-- SCF
      3  -5.20416020E+003 -4.37997983E+000  -3.96884211E-001      28.11  <-- SCF
      4  -5.20339731E+003 -3.89213097E+000  -2.24378637E-002      34.34  <-- SCF
      5  -5.20315918E+003 -3.56364474E+000  -7.00382131E-003      40.87  <-- SCF
      6  -5.20305272E+003 -3.23460072E+000  -3.13124329E-003      47.01  <-- SCF
      7  -5.20300307E+003 -3.08274323E+000  -1.46043994E-003      53.13  <-- SCF
      8  -5.20298742E+003 -2.91707613E+000  -4.60076978E-004      59.22  <-- SCF
      9  -5.20300214E+003 -2.81332264E+000   4.32833316E-004      65.23  <-- SCF
     10  -5.20301262E+003 -2.72859921E+000   3.08180042E-004      70.94  <-- SCF
     11  -5.20301232E+003 -2.63920903E+000  -8.74013820E-006      76.43  <-- SCF
     12  -5.20301047E+003 -2.57029290E+000  -5.44040512E-005      81.82  <-- SCF
     13  -5.20300928E+003 -2.50357349E+000  -3.51013474E-005      87.12  <-- SCF
     14  -5.20301260E+003 -2.44100646E+000   9.78341226E-005      92.40  <-- SCF
     15  -5.20302030E+003 -2.41140782E+000   2.26326855E-004      97.37  <-- SCF
     16  -5.20302387E+003 -2.40929667E+000   1.04918058E-004     102.23  <-- SCF
     17  -5.20302470E+003 -2.40890074E+000   2.44614720E-005     107.00  <-- SCF
     18  -5.20302487E+003 -2.40856855E+000   4.94652842E-006     111.65  <-- SCF
     19  -5.20302490E+003 -2.40860390E+000   9.91341934E-007     116.47  <-- SCF
     20  -5.20302492E+003 -2.40861276E+000   6.98406451E-007     121.30  <-- SCF
     21  -5.20302493E+003 -2.40861694E+000   2.60443104E-007     126.26  <-- SCF
------------------------------------------------------------------------ <-- SCF
 
Final energy, E             =  -5203.021078642     eV
Final free energy (E-TS)    =  -5203.024932047     eV
(energies not corrected for finite basis set)
 
NB est. 0K energy (E-0.5TS)      =  -5203.023005345     eV
 
 WARNING: Your unit cell might be too small to get accurate results for van der Waals
(SEDC) Total Energy Correction : -0.273834E+01 eV

Dispersion corrected final energy*, Ecor          =  -5205.759415147     eV
Dispersion corrected final free energy* (Ecor-TS) =  -5205.763268553     eV
NB dispersion corrected est. 0K energy* (Ecor-0.5TS) =  -5205.761341850     eV

Writing analysis data to 4x4.castep_bin

Writing model to 4x4.check
 
+---------------- MEMORY AND SCRATCH DISK ESTIMATES PER PROCESS --------------+
|                                                     Memory          Disk    |
| Model and support data                               45.7 MB         0.0 MB |
| Electronic energy minimisation requirements          62.0 MB         0.0 MB |
| Geometry minimisation requirements                   71.3 MB         0.0 MB |
|                                               ----------------------------- |
| Approx. total storage required per process          179.0 MB         0.0 MB |
|                                                                             |
| Requirements will fluctuate during execution and may exceed these estimates |
+-----------------------------------------------------------------------------+
 
 
 ************************************** Forces **************************************
 *                                                                                  *
 *                           Cartesian components (eV/A)                            *
 * -------------------------------------------------------------------------------- *
 *                         x                    y                    z              *
 *                                                                                  *
 * H               1     -3.59110             -8.75212             -0.05589         *
 * H               2      3.60484              8.73741              0.22937         *
 * C               1     -0.00660             -0.00385             -0.00020         *
 * C               2      0.00359             -0.00366             -0.00005         *
 * C               3     -0.00485              0.00329              0.00026         *
 * C               4      0.00162             -0.00241             -0.00028         *
 * C               5     -0.00952              0.00822             -0.00019         *
 * C               6     -0.00092              0.00119              0.00006         *
 * C               7     -0.00837              0.00199             -0.00003         *
 * C               8     -0.00449             -0.00010             -0.00014         *
 * C               9      0.00073             -0.01239             -0.00034         *
 * C              10      0.00413              0.00018             -0.00085         *
 * C              11     -0.00352              0.01751             -0.02440         *
 * C              12     -0.00498             -0.00187              0.00008         *
 * C              13     -0.00132             -0.00543             -0.00496         *
 * C              14     -0.00077              0.00037              0.00081         *
 * C              15     -0.00846              0.00772             -0.00027         *
 * C              16     -0.00486             -0.00330             -0.00025         *
 * C              17      0.00443             -0.00549             -0.00052         *
 * C              18      0.00807             -0.00118             -0.00040         *
 * C              19      0.01115             -0.00004             -0.00050         *
 * C              20      0.00214              0.00246             -0.00132         *
 * C              21     -0.00370             -0.00115             -0.05388         *
 * C              22      0.00239              0.00291             -0.07061         *
 * C              23      0.00120              0.00413              0.00129         *
 * C              24     -0.00046              0.00119              0.00129         *
 * C              25      0.00471             -0.00274             -0.00028         *
 * C              26      0.00780             -0.00247             -0.00025         *
 * C              27      0.00248              0.00048             -0.00051         *
 * C              28      0.00189             -0.00279             -0.00049         *
 * C              29     -0.00018              0.00443             -0.00038         *
 * C              30     -0.00519              0.00593             -0.01448         *
 * C              31      0.00083              0.00683              0.00056         *
 * C              32     -0.00270             -0.00525             -0.00220         *
 *                                                                                  *
 ************************************************************************************
 LBFGS: finished iteration     0 with enthalpy= -5.20576327E+003 eV
  
 +-----------+-----------------+-----------------+------------+-----+ <-- LBFGS
 | Parameter |      value      |    tolerance    |    units   | OK? | <-- LBFGS
 +-----------+-----------------+-----------------+------------+-----+ <-- LBFGS
 |  dE/ion   |   0.000000E+000 |   2.000000E-005 |         eV | No  | <-- LBFGS
 |  |F|max   |   9.460378E+000 |   1.000000E-002 |       eV/A | No  | <-- LBFGS
 |  |dR|max  |   0.000000E+000 |   1.000000E-003 |          A | No  | <-- LBFGS
 +-----------+-----------------+-----------------+------------+-----+ <-- LBFGS
  

================================================================================
 Starting LBFGS iteration          1 ...
================================================================================
  
 +------------+-------------+-------------+-----------------+ <-- min LBFGS
 |    Step    |   lambda    |   F.delta'  |    enthalpy     | <-- min LBFGS
 +------------+-------------+-------------+-----------------+ <-- min LBFGS
 |  previous  |    0.000000 |    3.454902 |    -5205.763269 | <-- min LBFGS
 +------------+-------------+-------------+-----------------+ <-- min LBFGS
  

--------------------------------------------------------------------------------
 LBFGS: starting iteration         1 with trial guess (lambda=  1.000000)
--------------------------------------------------------------------------------
 
                           -------------------------------
                                     Cell Contents
                           -------------------------------
 
            xxxxxxxxxxxxxxxxxxxxxxxxxxxxxxxxxxxxxxxxxxxxxxxxxxxxxxxxxxxxxxxxx
            x  Element         Atom        Fractional coordinates of atoms  x
            x                 Number           u          v          w      x
            x---------------------------------------------------------------x
            x  H                 1         0.535981   0.428739   0.641417   x
            x  H                 2         0.605847   0.510336   0.641993   x
            x  C                 1         0.166469   0.083151   0.500002   x
            x  C                 2        -0.000099  -0.000144   0.500002   x
            x  C                 3         0.166445   0.333242   0.500003   x
            x  C                 4        -0.000173   0.249813   0.500002   x
            x  C                 5         0.166516   0.583413   0.500002   x
            x  C                 6        -0.000108   0.499947   0.500003   x
            x  C                 7         0.166536   0.833432   0.500002   x
            x  C                 8        -0.000053   0.750064   0.500002   x
            x  C                 9         0.416552   0.083142   0.500002   x
            x  C                10         0.249874  -0.000199   0.500002   x
            x  C                11         0.416598   0.333303   0.499992   x
            x  C                12         0.249847   0.249825   0.500003   x
            x  C                13         0.416662   0.583469   0.500000   x
            x  C                14         0.249889   0.499981   0.500003   x
            x  C                15         0.416654   0.833484   0.500002   x
            x  C                16         0.249954   0.750120   0.500002   x
            x  C                17         0.666715   0.083219   0.500002   x
            x  C                18         0.500011  -0.000153   0.500002   x
            x  C                19         0.666779   0.333355   0.500002   x
            x  C                20         0.500015   0.249864   0.500002   x
            x  C                21         0.666812   0.583508   0.499979   x
            x  C                22         0.500069   0.500054   0.499972   x
            x  C                23         0.666791   0.833539   0.500003   x
            x  C                24         0.500117   0.750194   0.500003   x
            x  C                25         0.916720   0.083269   0.500002   x
            x  C                26         0.750131  -0.000096   0.500002   x
            x  C                27         0.916773   0.333379   0.500002   x
            x  C                28         0.750153   0.249917   0.500002   x
            x  C                29         0.916838   0.583514   0.500002   x
            x  C                30         0.750213   0.500092   0.499996   x
            x  C                31         0.916773   0.833483   0.500003   x
            x  C                32         0.750197   0.750176   0.500002   x
            xxxxxxxxxxxxxxxxxxxxxxxxxxxxxxxxxxxxxxxxxxxxxxxxxxxxxxxxxxxxxxxxx
 
 
------------------------------------------------------------------------ <-- SCF
SCF loop      Energy           Fermi           Energy gain       Timer   <-- SCF
                               energy          per atom          (sec)   <-- SCF
------------------------------------------------------------------------ <-- SCF
Initial  -5.20195078E+003  0.00000000E+000                       132.44  <-- SCF
      1  -5.20368793E+003 -2.40871736E+000   5.10927804E-002     137.59  <-- SCF
      2  -5.20369339E+003 -2.40871473E+000   1.60384690E-004     143.08  <-- SCF
      3  -5.20364239E+003 -2.40729484E+000  -1.49993146E-003     148.38  <-- SCF
      4  -5.20364320E+003 -2.40651334E+000   2.37755244E-005     153.71  <-- SCF
      5  -5.20364352E+003 -2.40607994E+000   9.57024193E-006     158.76  <-- SCF
      6  -5.20364363E+003 -2.40594055E+000   3.18039214E-006     163.80  <-- SCF
      7  -5.20364366E+003 -2.40599655E+000   9.84242063E-007     168.77  <-- SCF
      8  -5.20364369E+003 -2.40625784E+000   8.36088572E-007     173.74  <-- SCF
      9  -5.20364371E+003 -2.40656374E+000   5.12078364E-007     178.64  <-- SCF
     10  -5.20364372E+003 -2.40696967E+000   3.13641837E-007     183.53  <-- SCF
     11  -5.20364372E+003 -2.40738170E+000   5.20962820E-009     188.39  <-- SCF
------------------------------------------------------------------------ <-- SCF
 
Final energy, E             =  -5203.639866360     eV
Final free energy (E-TS)    =  -5203.643719844     eV
(energies not corrected for finite basis set)
 
NB est. 0K energy (E-0.5TS)      =  -5203.641793102     eV
 
(SEDC) Total Energy Correction : -0.274826E+01 eV

Dispersion corrected final energy*, Ecor          =  -5206.388131164     eV
Dispersion corrected final free energy* (Ecor-TS) =  -5206.391984647     eV
NB dispersion corrected est. 0K energy* (Ecor-0.5TS) =  -5206.390057906     eV
 
 ************************************** Forces **************************************
 *                                                                                  *
 *                           Cartesian components (eV/A)                            *
 * -------------------------------------------------------------------------------- *
 *                         x                    y                    z              *
 *                                                                                  *
 * H               1      0.06367              0.12850              0.09946         *
 * H               2     -0.04743             -0.14604              0.08903         *
 * C               1     -0.00198             -0.00143              0.00014         *
 * C               2      0.00135             -0.00176              0.00043         *
 * C               3     -0.00361              0.00193              0.00030         *
 * C               4      0.00037             -0.00191             -0.00027         *
 * C               5     -0.00493              0.00362              0.00033         *
 * C               6     -0.00205              0.00119              0.00048         *
 * C               7     -0.00540              0.00063             -0.00003         *
 * C               8     -0.00377              0.00175             -0.00023         *
 * C               9      0.00252             -0.00541             -0.00020         *
 * C              10      0.00037             -0.00126             -0.00103         *
 * C              11     -0.00256              0.01263             -0.02606         *
 * C              12     -0.00514              0.00023             -0.00080         *
 * C              13      0.00108             -0.00299             -0.00901         *
 * C              14     -0.00326              0.00209              0.00120         *
 * C              15     -0.00401              0.00218              0.00015         *
 * C              16     -0.00625              0.00153             -0.00024         *
 * C              17      0.00551             -0.00331             -0.00038         *
 * C              18      0.00494             -0.00093             -0.00023         *
 * C              19      0.00634              0.00207             -0.00157         *
 * C              20      0.00340              0.00148             -0.00139         *
 * C              21     -0.00470             -0.00156             -0.05528         *
 * C              22     -0.00168              0.00506             -0.07499         *
 * C              23     -0.00044              0.00120              0.00146         *
 * C              24     -0.00279              0.00143              0.00148         *
 * C              25      0.00437             -0.00155             -0.00028         *
 * C              26      0.00597             -0.00115              0.00003         *
 * C              27      0.00176             -0.00029             -0.00044         *
 * C              28      0.00379             -0.00261             -0.00022         *
 * C              29     -0.00214              0.00205             -0.00092         *
 * C              30     -0.00122              0.00232             -0.01702         *
 * C              31     -0.00088              0.00180              0.00091         *
 * C              32     -0.00121             -0.00147             -0.00481         *
 *                                                                                  *
 ************************************************************************************
  
 +------------+-------------+-------------+-----------------+ <-- min LBFGS
 |    Step    |   lambda    |   F.delta'  |    enthalpy     | <-- min LBFGS
 +------------+-------------+-------------+-----------------+ <-- min LBFGS
 |  previous  |    0.000000 |    3.454902 |    -5205.763269 | <-- min LBFGS
 | trial step |    1.000000 |   -0.053595 |    -5206.391985 | <-- min LBFGS
 +------------+-------------+-------------+-----------------+ <-- min LBFGS
  
 LBFGS: finished iteration     1 with enthalpy= -5.20639198E+003 eV
  
 +-----------+-----------------+-----------------+------------+-----+ <-- LBFGS
 | Parameter |      value      |    tolerance    |    units   | OK? | <-- LBFGS
 +-----------+-----------------+-----------------+------------+-----+ <-- LBFGS
 |  dE/ion   |   1.849165E-002 |   2.000000E-005 |         eV | No  | <-- LBFGS
 |  |F|max   |   1.774924E-001 |   1.000000E-002 |       eV/A | No  | <-- LBFGS
 |  |dR|max  |   8.138769E-002 |   1.000000E-003 |          A | No  | <-- LBFGS
 +-----------+-----------------+-----------------+------------+-----+ <-- LBFGS
  

================================================================================
 Starting LBFGS iteration          2 ...
================================================================================
  
 +------------+-------------+-------------+-----------------+ <-- min LBFGS
 |    Step    |   lambda    |   F.delta'  |    enthalpy     | <-- min LBFGS
 +------------+-------------+-------------+-----------------+ <-- min LBFGS
 |  previous  |    0.000000 |    0.085966 |    -5206.391985 | <-- min LBFGS
 +------------+-------------+-------------+-----------------+ <-- min LBFGS
  

--------------------------------------------------------------------------------
 LBFGS: starting iteration         2 with trial guess (lambda=  1.000000)
--------------------------------------------------------------------------------
 
                           -------------------------------
                                     Cell Contents
                           -------------------------------
 
            xxxxxxxxxxxxxxxxxxxxxxxxxxxxxxxxxxxxxxxxxxxxxxxxxxxxxxxxxxxxxxxxx
            x  Element         Atom        Fractional coordinates of atoms  x
            x                 Number           u          v          w      x
            x---------------------------------------------------------------x
            x  H                 1         0.536098   0.428865   0.641459   x
            x  H                 2         0.605736   0.510193   0.642031   x
            x  C                 1         0.166466   0.083150   0.500002   x
            x  C                 2        -0.000099  -0.000146   0.500003   x
            x  C                 3         0.166443   0.333244   0.500003   x
            x  C                 4        -0.000174   0.249811   0.500002   x
            x  C                 5         0.166513   0.583416   0.500003   x
            x  C                 6        -0.000110   0.499948   0.500003   x
            x  C                 7         0.166532   0.833432   0.500002   x
            x  C                 8        -0.000055   0.750066   0.500002   x
            x  C                 9         0.416551   0.083137   0.500002   x
            x  C                10         0.249874  -0.000200   0.500002   x
            x  C                11         0.416602   0.333315   0.499981   x
            x  C                12         0.249843   0.249825   0.500002   x
            x  C                13         0.416662   0.583466   0.499997   x
            x  C                14         0.249887   0.499983   0.500003   x
            x  C                15         0.416651   0.833486   0.500002   x
            x  C                16         0.249950   0.750121   0.500002   x
            x  C                17         0.666718   0.083216   0.500002   x
            x  C                18         0.500015  -0.000154   0.500002   x
            x  C                19         0.666785   0.333358   0.500002   x
            x  C                20         0.500019   0.249866   0.500001   x
            x  C                21         0.666807   0.583507   0.499956   x
            x  C                22         0.500070   0.500059   0.499940   x
            x  C                23         0.666791   0.833540   0.500004   x
            x  C                24         0.500115   0.750196   0.500004   x
            x  C                25         0.916723   0.083267   0.500002   x
            x  C                26         0.750135  -0.000097   0.500002   x
            x  C                27         0.916774   0.333379   0.500002   x
            x  C                28         0.750155   0.249915   0.500002   x
            x  C                29         0.916837   0.583516   0.500002   x
            x  C                30         0.750214   0.500094   0.499989   x
            x  C                31         0.916773   0.833485   0.500003   x
            x  C                32         0.750195   0.750175   0.500000   x
            xxxxxxxxxxxxxxxxxxxxxxxxxxxxxxxxxxxxxxxxxxxxxxxxxxxxxxxxxxxxxxxxx
 
 
------------------------------------------------------------------------ <-- SCF
SCF loop      Energy           Fermi           Energy gain       Timer   <-- SCF
                               energy          per atom          (sec)   <-- SCF
------------------------------------------------------------------------ <-- SCF
Initial  -5.20366216E+003  0.00000000E+000                       192.89  <-- SCF
      1  -5.20364419E+003 -2.40798021E+000  -5.28391129E-004     198.42  <-- SCF
      2  -5.20364419E+003 -2.40798024E+000   6.35280250E-008     203.35  <-- SCF
      3  -5.20364419E+003 -2.40804260E+000  -1.42856719E-007     207.91  <-- SCF
      4  -5.20364419E+003 -2.40811249E+000   1.21692767E-007     212.78  <-- SCF
------------------------------------------------------------------------ <-- SCF
 
Final energy, E             =  -5203.640339622     eV
Final free energy (E-TS)    =  -5203.644191874     eV
(energies not corrected for finite basis set)
 
NB est. 0K energy (E-0.5TS)      =  -5203.642265748     eV
 
(SEDC) Total Energy Correction : -0.274806E+01 eV

Dispersion corrected final energy*, Ecor          =  -5206.388404162     eV
Dispersion corrected final free energy* (Ecor-TS) =  -5206.392256414     eV
NB dispersion corrected est. 0K energy* (Ecor-0.5TS) =  -5206.390330288     eV
 
 ************************************** Forces **************************************
 *                                                                                  *
 *                           Cartesian components (eV/A)                            *
 * -------------------------------------------------------------------------------- *
 *                         x                    y                    z              *
 *                                                                                  *
 * H               1      0.03181              0.05143              0.09758         *
 * H               2     -0.01579             -0.06883              0.08973         *
 * C               1     -0.00060             -0.00039              0.00054         *
 * C               2      0.00118             -0.00112              0.00088         *
 * C               3     -0.00319              0.00138              0.00022         *
 * C               4      0.00028             -0.00124             -0.00015         *
 * C               5     -0.00391              0.00285              0.00084         *
 * C               6     -0.00213              0.00100              0.00074         *
 * C               7     -0.00458              0.00064             -0.00008         *
 * C               8     -0.00335              0.00136             -0.00023         *
 * C               9      0.00224             -0.00217              0.00016         *
 * C              10     -0.00017             -0.00073             -0.00086         *
 * C              11     -0.00150              0.00610             -0.02675         *
 * C              12     -0.00296              0.00173             -0.00174         *
 * C              13     -0.00155              0.00022             -0.01167         *
 * C              14     -0.00288              0.00196              0.00095         *
 * C              15     -0.00310              0.00077              0.00056         *
 * C              16     -0.00532              0.00199             -0.00014         *
 * C              17      0.00517             -0.00234             -0.00019         *
 * C              18      0.00369             -0.00087              0.00001         *
 * C              19      0.00428              0.00089             -0.00233         *
 * C              20      0.00176              0.00189             -0.00267         *
 * C              21     -0.00227              0.00017             -0.05308         *
 * C              22     -0.00172              0.00391             -0.06953         *
 * C              23     -0.00036              0.00012              0.00117         *
 * C              24     -0.00251              0.00066              0.00107         *
 * C              25      0.00358             -0.00110             -0.00017         *
 * C              26      0.00486             -0.00095              0.00036         *
 * C              27      0.00142             -0.00050             -0.00034         *
 * C              28      0.00379             -0.00199              0.00005         *
 * C              29     -0.00219              0.00197             -0.00129         *
 * C              30     -0.00109              0.00165             -0.01776         *
 * C              31     -0.00159              0.00033              0.00102         *
 * C              32     -0.00130             -0.00079             -0.00687         *
 *                                                                                  *
 ************************************************************************************
  
 +------------+-------------+-------------+-----------------+ <-- min LBFGS
 |    Step    |   lambda    |   F.delta'  |    enthalpy     | <-- min LBFGS
 +------------+-------------+-------------+-----------------+ <-- min LBFGS
 |  previous  |    0.000000 |    0.085966 |    -5206.391985 | <-- min LBFGS
 | trial step |    1.000000 |    0.055789 |    -5206.392256 | <-- min LBFGS
 +------------+-------------+-------------+-----------------+ <-- min LBFGS
  

--------------------------------------------------------------------------------
 LBFGS: improving iteration         2 with line minimization (lambda=  2.848724)
--------------------------------------------------------------------------------
 
                           -------------------------------
                                     Cell Contents
                           -------------------------------
 
            xxxxxxxxxxxxxxxxxxxxxxxxxxxxxxxxxxxxxxxxxxxxxxxxxxxxxxxxxxxxxxxxx
            x  Element         Atom        Fractional coordinates of atoms  x
            x                 Number           u          v          w      x
            x---------------------------------------------------------------x
            x  H                 1         0.536314   0.429098   0.641537   x
            x  H                 2         0.605529   0.509928   0.642100   x
            x  C                 1         0.166462   0.083147   0.500003   x
            x  C                 2        -0.000098  -0.000149   0.500003   x
            x  C                 3         0.166439   0.333247   0.500003   x
            x  C                 4        -0.000175   0.249807   0.500002   x
            x  C                 5         0.166509   0.583423   0.500003   x
            x  C                 6        -0.000112   0.499950   0.500003   x
            x  C                 7         0.166524   0.833433   0.500002   x
            x  C                 8        -0.000059   0.750069   0.500002   x
            x  C                 9         0.416550   0.083127   0.500002   x
            x  C                10         0.249873  -0.000202   0.500001   x
            x  C                11         0.416609   0.333339   0.499961   x
            x  C                12         0.249835   0.249825   0.500002   x
            x  C                13         0.416661   0.583460   0.499990   x
            x  C                14         0.249884   0.499987   0.500004   x
            x  C                15         0.416647   0.833490   0.500003   x
            x  C                16         0.249941   0.750124   0.500002   x
            x  C                17         0.666724   0.083210   0.500002   x
            x  C                18         0.500022  -0.000156   0.500002   x
            x  C                19         0.666797   0.333361   0.500000   x
            x  C                20         0.500025   0.249868   0.500000   x
            x  C                21         0.666798   0.583504   0.499913   x
            x  C                22         0.500072   0.500068   0.499882   x
            x  C                23         0.666791   0.833542   0.500005   x
            x  C                24         0.500112   0.750198   0.500005   x
            x  C                25         0.916728   0.083265   0.500002   x
            x  C                26         0.750144  -0.000099   0.500002   x
            x  C                27         0.916777   0.333379   0.500002   x
            x  C                28         0.750158   0.249910   0.500002   x
            x  C                29         0.916835   0.583520   0.500001   x
            x  C                30         0.750214   0.500098   0.499976   x
            x  C                31         0.916773   0.833488   0.500004   x
            x  C                32         0.750192   0.750172   0.499996   x
            xxxxxxxxxxxxxxxxxxxxxxxxxxxxxxxxxxxxxxxxxxxxxxxxxxxxxxxxxxxxxxxxx
 
 
------------------------------------------------------------------------ <-- SCF
SCF loop      Energy           Fermi           Energy gain       Timer   <-- SCF
                               energy          per atom          (sec)   <-- SCF
------------------------------------------------------------------------ <-- SCF
Initial  -5.20367253E+003  0.00000000E+000                       217.25  <-- SCF
      1  -5.20364451E+003 -2.40814944E+000  -8.24057947E-004     222.50  <-- SCF
      2  -5.20364452E+003 -2.40814958E+000   2.26712930E-007     227.00  <-- SCF
      3  -5.20364448E+003 -2.40822487E+000  -1.05612784E-006     231.79  <-- SCF
      4  -5.20364449E+003 -2.40829838E+000   1.05186921E-007     236.46  <-- SCF
      5  -5.20364449E+003 -2.40836002E+000   2.89546698E-008     240.95  <-- SCF
------------------------------------------------------------------------ <-- SCF
 
Final energy, E             =  -5203.640637144     eV
Final free energy (E-TS)    =  -5203.644487108     eV
(energies not corrected for finite basis set)
 
NB est. 0K energy (E-0.5TS)      =  -5203.642562126     eV
 
(SEDC) Total Energy Correction : -0.274769E+01 eV

Dispersion corrected final energy*, Ecor          =  -5206.388328359     eV
Dispersion corrected final free energy* (Ecor-TS) =  -5206.392178323     eV
NB dispersion corrected est. 0K energy* (Ecor-0.5TS) =  -5206.390253341     eV
 
 ************************************** Forces **************************************
 *                                                                                  *
 *                           Cartesian components (eV/A)                            *
 * -------------------------------------------------------------------------------- *
 *                         x                    y                    z              *
 *                                                                                  *
 * H               1     -0.02890             -0.09544              0.09418         *
 * H               2      0.04452              0.07836              0.09117         *
 * C               1      0.00224              0.00176              0.00090         *
 * C               2      0.00077              0.00010              0.00128         *
 * C               3     -0.00230              0.00058             -0.00020         *
 * C               4     -0.00003             -0.00008             -0.00033         *
 * C               5     -0.00174              0.00128              0.00139         *
 * C               6     -0.00239              0.00040              0.00090         *
 * C               7     -0.00300              0.00057             -0.00055         *
 * C               8     -0.00255              0.00051             -0.00054         *
 * C               9      0.00159              0.00427              0.00053         *
 * C              10     -0.00119              0.00052             -0.00094         *
 * C              11      0.00057             -0.00654             -0.02694         *
 * C              12      0.00154              0.00452             -0.00320         *
 * C              13     -0.00646              0.00622             -0.01538         *
 * C              14     -0.00212              0.00181              0.00044         *
 * C              15     -0.00147             -0.00220              0.00094         *
 * C              16     -0.00333              0.00294             -0.00038         *
 * C              17      0.00431             -0.00043             -0.00019         *
 * C              18      0.00150             -0.00045              0.00010         *
 * C              19      0.00049             -0.00129             -0.00357         *
 * C              20     -0.00174              0.00253             -0.00463         *
 * C              21      0.00236              0.00324             -0.04780         *
 * C              22     -0.00182              0.00190             -0.05870         *
 * C              23     -0.00037             -0.00211              0.00046         *
 * C              24     -0.00191             -0.00094              0.00024         *
 * C              25      0.00205             -0.00011             -0.00039         *
 * C              26      0.00283             -0.00052              0.00057         *
 * C              27      0.00076             -0.00058             -0.00051         *
 * C              28      0.00356             -0.00085              0.00026         *
 * C              29     -0.00223              0.00171             -0.00192         *
 * C              30     -0.00100              0.00050             -0.01836         *
 * C              31     -0.00317             -0.00257              0.00098         *
 * C              32     -0.00136              0.00040             -0.00983         *
 *                                                                                  *
 ************************************************************************************
  
 +------------+-------------+-------------+-----------------+ <-- min LBFGS
 |    Step    |   lambda    |   F.delta'  |    enthalpy     | <-- min LBFGS
 +------------+-------------+-------------+-----------------+ <-- min LBFGS
 |  previous  |    0.000000 |    0.085966 |    -5206.391985 | <-- min LBFGS
 | trial step |    1.000000 |    0.055789 |    -5206.392256 | <-- min LBFGS
 |  line step |    2.848724 |   -0.001890 |    -5206.392178 | <-- min LBFGS
 +------------+-------------+-------------+-----------------+ <-- min LBFGS
  
 LBFGS: reverting to earlier configuration
 
                           -------------------------------
                                     Cell Contents
                           -------------------------------
 
            xxxxxxxxxxxxxxxxxxxxxxxxxxxxxxxxxxxxxxxxxxxxxxxxxxxxxxxxxxxxxxxxx
            x  Element         Atom        Fractional coordinates of atoms  x
            x                 Number           u          v          w      x
            x---------------------------------------------------------------x
            x  H                 1         0.536098   0.428865   0.641459   x
            x  H                 2         0.605736   0.510193   0.642031   x
            x  C                 1         0.166466   0.083150   0.500002   x
            x  C                 2        -0.000099  -0.000146   0.500003   x
            x  C                 3         0.166443   0.333244   0.500003   x
            x  C                 4        -0.000174   0.249811   0.500002   x
            x  C                 5         0.166513   0.583416   0.500003   x
            x  C                 6        -0.000110   0.499948   0.500003   x
            x  C                 7         0.166532   0.833432   0.500002   x
            x  C                 8        -0.000055   0.750066   0.500002   x
            x  C                 9         0.416551   0.083137   0.500002   x
            x  C                10         0.249874  -0.000200   0.500002   x
            x  C                11         0.416602   0.333315   0.499981   x
            x  C                12         0.249843   0.249825   0.500002   x
            x  C                13         0.416662   0.583466   0.499997   x
            x  C                14         0.249887   0.499983   0.500003   x
            x  C                15         0.416651   0.833486   0.500002   x
            x  C                16         0.249950   0.750121   0.500002   x
            x  C                17         0.666718   0.083216   0.500002   x
            x  C                18         0.500015  -0.000154   0.500002   x
            x  C                19         0.666785   0.333358   0.500002   x
            x  C                20         0.500019   0.249866   0.500001   x
            x  C                21         0.666807   0.583507   0.499956   x
            x  C                22         0.500070   0.500059   0.499940   x
            x  C                23         0.666791   0.833540   0.500004   x
            x  C                24         0.500115   0.750196   0.500004   x
            x  C                25         0.916723   0.083267   0.500002   x
            x  C                26         0.750135  -0.000097   0.500002   x
            x  C                27         0.916774   0.333379   0.500002   x
            x  C                28         0.750155   0.249915   0.500002   x
            x  C                29         0.916837   0.583516   0.500002   x
            x  C                30         0.750214   0.500094   0.499989   x
            x  C                31         0.916773   0.833485   0.500003   x
            x  C                32         0.750195   0.750175   0.500000   x
            xxxxxxxxxxxxxxxxxxxxxxxxxxxxxxxxxxxxxxxxxxxxxxxxxxxxxxxxxxxxxxxxx
 
 
 LBFGS: finished iteration     2 with enthalpy= -5.20639226E+003 eV
  
 +-----------+-----------------+-----------------+------------+-----+ <-- LBFGS
 | Parameter |      value      |    tolerance    |    units   | OK? | <-- LBFGS
 +-----------+-----------------+-----------------+------------+-----+ <-- LBFGS
 |  dE/ion   |   7.993145E-006 |   2.000000E-005 |         eV | Yes | <-- LBFGS
 |  |F|max   |   1.147976E-001 |   1.000000E-002 |       eV/A | No  | <-- LBFGS
 |  |dR|max  |   1.492636E-003 |   1.000000E-003 |          A | No  | <-- LBFGS
 +-----------+-----------------+-----------------+------------+-----+ <-- LBFGS
  

================================================================================
 Starting LBFGS iteration          3 ...
================================================================================
  
 +------------+-------------+-------------+-----------------+ <-- min LBFGS
 |    Step    |   lambda    |   F.delta'  |    enthalpy     | <-- min LBFGS
 +------------+-------------+-------------+-----------------+ <-- min LBFGS
 |  previous  |    0.000000 |    0.077431 |    -5206.392256 | <-- min LBFGS
 +------------+-------------+-------------+-----------------+ <-- min LBFGS
  

--------------------------------------------------------------------------------
 LBFGS: starting iteration         3 with trial guess (lambda=  1.000000)
--------------------------------------------------------------------------------
 
                           -------------------------------
                                     Cell Contents
                           -------------------------------
 
            xxxxxxxxxxxxxxxxxxxxxxxxxxxxxxxxxxxxxxxxxxxxxxxxxxxxxxxxxxxxxxxxx
            x  Element         Atom        Fractional coordinates of atoms  x
            x                 Number           u          v          w      x
            x---------------------------------------------------------------x
            x  H                 1         0.536313   0.429080   0.641602   x
            x  H                 2         0.605538   0.509918   0.642162   x
            x  C                 1         0.166463   0.083148   0.500003   x
            x  C                 2        -0.000097  -0.000150   0.500004   x
            x  C                 3         0.166435   0.333249   0.500003   x
            x  C                 4        -0.000175   0.249806   0.500002   x
            x  C                 5         0.166506   0.583426   0.500004   x
            x  C                 6        -0.000114   0.499952   0.500004   x
            x  C                 7         0.166519   0.833434   0.500002   x
            x  C                 8        -0.000063   0.750071   0.500002   x
            x  C                 9         0.416553   0.083128   0.500002   x
            x  C                10         0.249872  -0.000203   0.500000   x
            x  C                11         0.416609   0.333340   0.499942   x
            x  C                12         0.249836   0.249830   0.500000   x
            x  C                13         0.416658   0.583465   0.499980   x
            x  C                14         0.249882   0.499990   0.500005   x
            x  C                15         0.416643   0.833490   0.500003   x
            x  C                16         0.249937   0.750128   0.500002   x
            x  C                17         0.666729   0.083208   0.500002   x
            x  C                18         0.500025  -0.000157   0.500002   x
            x  C                19         0.666801   0.333361   0.499998   x
            x  C                20         0.500028   0.249872   0.499998   x
            x  C                21         0.666799   0.583506   0.499878   x
            x  C                22         0.500072   0.500073   0.499837   x
            x  C                23         0.666790   0.833541   0.500005   x
            x  C                24         0.500109   0.750198   0.500005   x
            x  C                25         0.916732   0.083263   0.500002   x
            x  C                26         0.750149  -0.000100   0.500003   x
            x  C                27         0.916778   0.333377   0.500002   x
            x  C                28         0.750162   0.249908   0.500002   x
            x  C                29         0.916834   0.583523   0.500000   x
            x  C                30         0.750213   0.500100   0.499963   x
            x  C                31         0.916769   0.833487   0.500005   x
            x  C                32         0.750190   0.750172   0.499990   x
            xxxxxxxxxxxxxxxxxxxxxxxxxxxxxxxxxxxxxxxxxxxxxxxxxxxxxxxxxxxxxxxxx
 
 
------------------------------------------------------------------------ <-- SCF
SCF loop      Energy           Fermi           Energy gain       Timer   <-- SCF
                               energy          per atom          (sec)   <-- SCF
------------------------------------------------------------------------ <-- SCF
Initial  -5.20366791E+003  0.00000000E+000                       245.60  <-- SCF
      1  -5.20364475E+003 -2.40813285E+000  -6.81209754E-004     250.73  <-- SCF
      2  -5.20364478E+003 -2.40813340E+000   6.88282540E-007     255.80  <-- SCF
      3  -5.20364472E+003 -2.40820404E+000  -1.51724576E-006     260.72  <-- SCF
      4  -5.20364473E+003 -2.40827593E+000   2.11743615E-007     265.30  <-- SCF
      5  -5.20364473E+003 -2.40833716E+000   3.92456792E-008     269.87  <-- SCF
------------------------------------------------------------------------ <-- SCF
 
Final energy, E             =  -5203.640882761     eV
Final free energy (E-TS)    =  -5203.644733338     eV
(energies not corrected for finite basis set)
 
NB est. 0K energy (E-0.5TS)      =  -5203.642808050     eV
 
(SEDC) Total Energy Correction : -0.274762E+01 eV

Dispersion corrected final energy*, Ecor          =  -5206.388505884     eV
Dispersion corrected final free energy* (Ecor-TS) =  -5206.392356461     eV
NB dispersion corrected est. 0K energy* (Ecor-0.5TS) =  -5206.390431172     eV
 
 ************************************** Forces **************************************
 *                                                                                  *
 *                           Cartesian components (eV/A)                            *
 * -------------------------------------------------------------------------------- *
 *                         x                    y                    z              *
 *                                                                                  *
 * H               1     -0.02793             -0.09280              0.09361         *
 * H               2      0.04339              0.07590              0.09048         *
 * C               1      0.00194              0.00260              0.00110         *
 * C               2      0.00087              0.00022              0.00171         *
 * C               3     -0.00077              0.00120             -0.00048         *
 * C               4     -0.00003              0.00011             -0.00028         *
 * C               5     -0.00153              0.00080              0.00183         *
 * C               6     -0.00200              0.00019              0.00110         *
 * C               7     -0.00227              0.00095             -0.00067         *
 * C               8     -0.00218              0.00008             -0.00067         *
 * C               9      0.00082              0.00430              0.00063         *
 * C              10     -0.00031              0.00175             -0.00077         *
 * C              11      0.00058             -0.00510             -0.02682         *
 * C              12      0.00164              0.00276             -0.00427         *
 * C              13     -0.00511              0.00456             -0.01726         *
 * C              14     -0.00259              0.00160             -0.00025         *
 * C              15     -0.00120             -0.00162              0.00125         *
 * C              16     -0.00206              0.00205             -0.00033         *
 * C              17      0.00274             -0.00013              0.00006         *
 * C              18      0.00078              0.00038              0.00041         *
 * C              19     -0.00039             -0.00102             -0.00461         *
 * C              20     -0.00120              0.00111             -0.00605         *
 * C              21      0.00142              0.00214             -0.04452         *
 * C              22     -0.00168              0.00077             -0.05272         *
 * C              23     -0.00079             -0.00192             -0.00022         *
 * C              24     -0.00161              0.00013             -0.00062         *
 * C              25      0.00131              0.00023             -0.00032         *
 * C              26      0.00187             -0.00087              0.00081         *
 * C              27      0.00049              0.00034             -0.00041         *
 * C              28      0.00189             -0.00043              0.00040         *
 * C              29     -0.00171              0.00078             -0.00244         *
 * C              30     -0.00043             -0.00028             -0.01877         *
 * C              31     -0.00272             -0.00159              0.00067         *
 * C              32     -0.00120              0.00081             -0.01157         *
 *                                                                                  *
 ************************************************************************************
  
 +------------+-------------+-------------+-----------------+ <-- min LBFGS
 |    Step    |   lambda    |   F.delta'  |    enthalpy     | <-- min LBFGS
 +------------+-------------+-------------+-----------------+ <-- min LBFGS
 |  previous  |    0.000000 |    0.077431 |    -5206.392256 | <-- min LBFGS
 | trial step |    1.000000 |    0.022886 |    -5206.392356 | <-- min LBFGS
 +------------+-------------+-------------+-----------------+ <-- min LBFGS
  

--------------------------------------------------------------------------------
 LBFGS: improving iteration         3 with line minimization (lambda=  1.419577)
--------------------------------------------------------------------------------
 
                           -------------------------------
                                     Cell Contents
                           -------------------------------
 
            xxxxxxxxxxxxxxxxxxxxxxxxxxxxxxxxxxxxxxxxxxxxxxxxxxxxxxxxxxxxxxxxx
            x  Element         Atom        Fractional coordinates of atoms  x
            x                 Number           u          v          w      x
            x---------------------------------------------------------------x
            x  H                 1         0.536404   0.429170   0.641662   x
            x  H                 2         0.605455   0.509803   0.642217   x
            x  C                 1         0.166461   0.083147   0.500003   x
            x  C                 2        -0.000097  -0.000152   0.500004   x
            x  C                 3         0.166432   0.333251   0.500003   x
            x  C                 4        -0.000176   0.249804   0.500002   x
            x  C                 5         0.166503   0.583431   0.500004   x
            x  C                 6        -0.000116   0.499953   0.500004   x
            x  C                 7         0.166514   0.833435   0.500002   x
            x  C                 8        -0.000066   0.750073   0.500002   x
            x  C                 9         0.416554   0.083124   0.500002   x
            x  C                10         0.249871  -0.000204   0.500000   x
            x  C                11         0.416612   0.333350   0.499926   x
            x  C                12         0.249833   0.249832   0.499999   x
            x  C                13         0.416656   0.583464   0.499973   x
            x  C                14         0.249879   0.499993   0.500005   x
            x  C                15         0.416640   0.833491   0.500003   x
            x  C                16         0.249931   0.750130   0.500002   x
            x  C                17         0.666734   0.083204   0.500002   x
            x  C                18         0.500030  -0.000158   0.500002   x
            x  C                19         0.666807   0.333363   0.499997   x
            x  C                20         0.500032   0.249875   0.499996   x
            x  C                21         0.666795   0.583506   0.499845   x
            x  C                22         0.500073   0.500079   0.499794   x
            x  C                23         0.666790   0.833542   0.500006   x
            x  C                24         0.500106   0.750199   0.500006   x
            x  C                25         0.916735   0.083262   0.500002   x
            x  C                26         0.750154  -0.000102   0.500003   x
            x  C                27         0.916779   0.333377   0.500001   x
            x  C                28         0.750166   0.249905   0.500002   x
            x  C                29         0.916833   0.583526   0.499999   x
            x  C                30         0.750213   0.500103   0.499952   x
            x  C                31         0.916768   0.833488   0.500005   x
            x  C                32         0.750188   0.750170   0.499986   x
            xxxxxxxxxxxxxxxxxxxxxxxxxxxxxxxxxxxxxxxxxxxxxxxxxxxxxxxxxxxxxxxxx
 
 
------------------------------------------------------------------------ <-- SCF
SCF loop      Energy           Fermi           Energy gain       Timer   <-- SCF
                               energy          per atom          (sec)   <-- SCF
------------------------------------------------------------------------ <-- SCF
Initial  -5.20365500E+003  0.00000000E+000                       274.35  <-- SCF
      1  -5.20364474E+003 -2.40838580E+000  -3.01804626E-004     279.53  <-- SCF
      2  -5.20364474E+003 -2.40838586E+000   1.16388830E-007     283.42  <-- SCF
      3  -5.20364473E+003 -2.40843135E+000  -2.56529434E-007     288.13  <-- SCF
      4  -5.20364473E+003 -2.40848185E+000   5.63780192E-008     292.39  <-- SCF
------------------------------------------------------------------------ <-- SCF
 
Final energy, E             =  -5203.640883761     eV
Final free energy (E-TS)    =  -5203.644733641     eV
(energies not corrected for finite basis set)
 
NB est. 0K energy (E-0.5TS)      =  -5203.642808701     eV
 
(SEDC) Total Energy Correction : -0.274742E+01 eV

Dispersion corrected final energy*, Ecor          =  -5206.388303601     eV
Dispersion corrected final free energy* (Ecor-TS) =  -5206.392153481     eV
NB dispersion corrected est. 0K energy* (Ecor-0.5TS) =  -5206.390228541     eV
 
 ************************************** Forces **************************************
 *                                                                                  *
 *                           Cartesian components (eV/A)                            *
 * -------------------------------------------------------------------------------- *
 *                         x                    y                    z              *
 *                                                                                  *
 * H               1     -0.05338             -0.15436              0.09190         *
 * H               2      0.06866              0.13757              0.09075         *
 * C               1      0.00292              0.00367              0.00179         *
 * C               2      0.00097              0.00064              0.00256         *
 * C               3     -0.00006              0.00116             -0.00049         *
 * C               4     -0.00002              0.00057              0.00004         *
 * C               5     -0.00097              0.00022              0.00276         *
 * C               6     -0.00206              0.00001              0.00171         *
 * C               7     -0.00167              0.00115             -0.00057         *
 * C               8     -0.00203             -0.00031             -0.00058         *
 * C               9      0.00061              0.00654              0.00125         *
 * C              10     -0.00030              0.00258             -0.00048         *
 * C              11      0.00129             -0.00893             -0.02827         *
 * C              12      0.00308              0.00337             -0.00531         *
 * C              13     -0.00664              0.00627             -0.02055         *
 * C              14     -0.00270              0.00163             -0.00037         *
 * C              15     -0.00061             -0.00242              0.00201         *
 * C              16     -0.00127              0.00213             -0.00010         *
 * C              17      0.00234              0.00050              0.00053         *
 * C              18     -0.00008              0.00063              0.00096         *
 * C              19     -0.00181             -0.00179             -0.00557         *
[...]
      C    12      Pz                   1.000
      C    13      S                    1.028
      C    13      Px                   0.986
      C    13      Py                   0.986
      C    13      Pz                   0.999
      C    14      S                    1.028
      C    14      Px                   0.986
      C    14      Py                   0.986
      C    14      Pz                   1.000
      C    15      S                    1.027
      C    15      Px                   0.986
      C    15      Py                   0.986
      C    15      Pz                   1.000
      C    16      S                    1.028
      C    16      Px                   0.986
      C    16      Py                   0.986
      C    16      Pz                   1.000
      C    17      S                    1.027
      C    17      Px                   0.986
      C    17      Py                   0.986
      C    17      Pz                   1.000
      C    18      S                    1.027
      C    18      Px                   0.986
      C    18      Py                   0.986
      C    18      Pz                   1.000
      C    19      S                    1.028
      C    19      Px                   0.986
      C    19      Py                   0.986
      C    19      Pz                   1.000
      C    20      S                    1.028
      C    20      Px                   0.986
      C    20      Py                   0.986
      C    20      Pz                   1.000
      C    21      S                    1.027
      C    21      Px                   0.986
      C    21      Py                   0.986
      C    21      Pz                   1.000
      C    22      S                    1.028
      C    22      Px                   0.986
      C    22      Py                   0.986
      C    22      Pz                   1.000
      C    23      S                    1.027
      C    23      Px                   0.986
      C    23      Py                   0.986
      C    23      Pz                   1.000
      C    24      S                    1.028
      C    24      Px                   0.986
      C    24      Py                   0.986
      C    24      Pz                   1.000
      C    25      S                    1.026
      C    25      Px                   0.987
      C    25      Py                   0.987
      C    25      Pz                   1.001
      C    26      S                    1.027
      C    26      Px                   0.987
      C    26      Py                   0.986
      C    26      Pz                   1.000
      C    27      S                    1.027
      C    27      Px                   0.986
      C    27      Py                   0.987
      C    27      Pz                   1.000
      C    28      S                    1.028
      C    28      Px                   0.986
      C    28      Py                   0.986
      C    28      Pz                   0.999
      C    29      S                    1.027
      C    29      Px                   0.986
      C    29      Py                   0.987
      C    29      Pz                   1.000
      C    30      S                    1.028
      C    30      Px                   0.986
      C    30      Py                   0.986
      C    30      Pz                   1.000
      C    31      S                    1.026
      C    31      Px                   0.987
      C    31      Py                   0.987
      C    31      Pz                   1.001
      C    32      S                    1.027
      C    32      Px                   0.986
      C    32      Py                   0.986
      C    32      Pz                   1.000
  -------------------------------------------
                           Total:     129.998
  -------------------------------------------
 
     Atomic Populations (Mulliken)
     -----------------------------
Species          Ion     s       p       d       f      Total   Charge (e)
==========================================================================
  H               1     0.998   0.000   0.000   0.000   0.998     0.002
  H               2     1.000   0.000   0.000   0.000   1.000     0.000
  C               1     1.027   2.973   0.000   0.000   4.000    -0.000
  C               2     1.026   2.974   0.000   0.000   4.000    -0.000
  C               3     1.028   2.972   0.000   0.000   4.000     0.000
  C               4     1.027   2.973   0.000   0.000   4.000     0.000
  C               5     1.028   2.971   0.000   0.000   3.999     0.001
  C               6     1.027   2.973   0.000   0.000   4.000     0.000
  C               7     1.026   2.973   0.000   0.000   4.000     0.000
  C               8     1.027   2.974   0.000   0.000   4.001    -0.001
  C               9     1.028   2.972   0.000   0.000   4.000    -0.000
  C              10     1.027   2.973   0.000   0.000   4.000    -0.000
  C              11     1.028   2.972   0.000   0.000   4.000    -0.000
  C              12     1.028   2.972   0.000   0.000   4.000    -0.000
  C              13     1.028   2.971   0.000   0.000   3.999     0.001
  C              14     1.028   2.972   0.000   0.000   4.000    -0.000
  C              15     1.027   2.973   0.000   0.000   4.000     0.000
  C              16     1.028   2.972   0.000   0.000   4.000    -0.000
  C              17     1.027   2.973   0.000   0.000   4.000     0.000
  C              18     1.027   2.973   0.000   0.000   4.000     0.000
  C              19     1.028   2.972   0.000   0.000   4.000     0.000
  C              20     1.028   2.972   0.000   0.000   4.000    -0.000
  C              21     1.027   2.973   0.000   0.000   4.000    -0.000
  C              22     1.028   2.971   0.000   0.000   3.999     0.001
  C              23     1.027   2.973   0.000   0.000   4.000    -0.000
  C              24     1.028   2.972   0.000   0.000   4.000     0.000
  C              25     1.026   2.974   0.000   0.000   4.000    -0.000
  C              26     1.027   2.973   0.000   0.000   4.000     0.000
  C              27     1.027   2.973   0.000   0.000   4.000    -0.000
  C              28     1.028   2.971   0.000   0.000   3.999     0.001
  C              29     1.027   2.973   0.000   0.000   4.000     0.000
  C              30     1.028   2.972   0.000   0.000   4.000     0.000
  C              31     1.026   2.974   0.000   0.000   4.000    -0.000
  C              32     1.027   2.973   0.000   0.000   4.001    -0.001
==========================================================================
 
                 Bond                   Population      Length (A)
======================================================================
               H 1 -- H 2                    0.88        0.75098
              C 7  -- C 10                   1.07        1.42346
              C 2  -- C 31                   1.07        1.42368
              C 15 -- C 18                   1.07        1.42396
              C 23 -- C 26                   1.07        1.42440
              C 8  -- C 29                   1.07        1.42459
              C 1  -- C 2                    1.07        1.42473
              C 2  -- C 25                   1.07        1.42483
              C 31 -- C 32                   1.07        1.42496
              C 6  -- C 27                   1.07        1.42499
              C 4  -- C 25                   1.07        1.42500
              C 7  -- C 8                    1.07        1.42501
              C 8  -- C 31                   1.07        1.42514
              C 25 -- C 26                   1.07        1.42518
              C 4  -- C 27                   1.07        1.42572
              C 21 -- C 32                   1.07        1.42573
              C 29 -- C 30                   1.07        1.42580
              C 27 -- C 28                   1.07        1.42594
              C 9  -- C 10                   1.07        1.42597
              C 3  -- C 4                    1.07        1.42602
              C 5  -- C 16                   1.07        1.42603
              C 17 -- C 18                   1.07        1.42605
              C 1  -- C 12                   1.07        1.42616
              C 13 -- C 24                   1.07        1.42618
              C 19 -- C 30                   1.07        1.42619
              C 6  -- C 29                   1.07        1.42620
              C 15 -- C 16                   1.07        1.42621
              C 17 -- C 26                   1.07        1.42622
              C 17 -- C 28                   1.07        1.42629
              C 5  -- C 6                    1.07        1.42630
              C 3  -- C 14                   1.07        1.42642
              C 11 -- C 22                   1.07        1.42643
              C 23 -- C 24                   1.07        1.42646
              C 7  -- C 16                   1.07        1.42660
              C 23 -- C 32                   1.07        1.42663
              C 19 -- C 20                   1.07        1.42664
              C 1  -- C 10                   1.07        1.42665
              C 9  -- C 18                   1.07        1.42667
              C 15 -- C 24                   1.07        1.42683
              C 21 -- C 22                   1.07        1.42690
              C 9  -- C 20                   1.07        1.42697
              C 11 -- C 12                   1.07        1.42701
              C 13 -- C 14                   1.07        1.42728
              C 3  -- C 12                   1.07        1.42756
              C 19 -- C 28                   1.07        1.42769
              C 21 -- C 30                   1.07        1.42773
              C 13 -- C 22                   1.07        1.42776
              C 5  -- C 14                   1.07        1.42781
              C 11 -- C 20                   1.07        1.42798
              C 1  -- C 31                  -0.18        2.46629
              C 10 -- C 16                  -0.18        2.46665
              C 1  -- C 7                   -0.18        2.46679
              C 2  -- C 32                  -0.18        2.46685
              C 9  -- C 15                  -0.18        2.46690
              C 7  -- C 31                  -0.18        2.46709
              C 6  -- C 30                  -0.18        2.46718
              C 18 -- C 24                  -0.18        2.46722
              C 4  -- C 26                  -0.18        2.46726
              C 4  -- C 28                  -0.18        2.46738
              C 8  -- C 32                  -0.18        2.46739
              C 5  -- C 29                  -0.18        2.46740
              C 17 -- C 23                  -0.18        2.46741
              C 25 -- C 31                  -0.18        2.46749
              C 3  -- C 27                  -0.18        2.46755
              C 7  -- C 29                  -0.18        2.46764
              C 1  -- C 25                  -0.18        2.46768
              C 26 -- C 32                  -0.18        2.46790
              C 2  -- C 26                  -0.18        2.46791
              C 2  -- C 8                   -0.18        2.46816
              C 8  -- C 10                  -0.18        2.46842
              C 23 -- C 25                  -0.18        2.46844
              C 7  -- C 9                   -0.18        2.46862
              C 6  -- C 28                  -0.18        2.46864
              C 3  -- C 25                  -0.18        2.46878
              C 8  -- C 30                  -0.18        2.46892
              C 2  -- C 12                  -0.18        2.46906
              C 16 -- C 18                  -0.18        2.46913
              C 15 -- C 17                  -0.18        2.46920
              C 21 -- C 23                  -0.18        2.46923
              C 29 -- C 31                  -0.18        2.46930
              C 2  -- C 4                   -0.18        2.46935
              C 5  -- C 27                  -0.18        2.46938
              C 24 -- C 26                  -0.18        2.46940
              C 26 -- C 28                  -0.18        2.46941
              C 21 -- C 31                  -0.18        2.46943
              C 8  -- C 16                  -0.18        2.46955
              C 5  -- C 7                   -0.18        2.46957
              C 21 -- C 29                  -0.18        2.46971
              C 13 -- C 15                  -0.18        2.46973
              C 6  -- C 14                  -0.18        2.46986
              C 23 -- C 31                  -0.18        2.46987
              C 2  -- C 10                  -0.18        2.46992
              C 10 -- C 12                  -0.18        2.46993
              C 17 -- C 25                  -0.18        2.47005
              C 18 -- C 20                  -0.18        2.47008
              C 19 -- C 27                  -0.18        2.47011
              C 5  -- C 15                  -0.18        2.47022
              C 4  -- C 12                  -0.18        2.47036
              C 18 -- C 28                  -0.18        2.47042
              C 13 -- C 23                  -0.18        2.47081
              C 18 -- C 26                  -0.18        2.47085
              C 20 -- C 28                  -0.18        2.47090
              C 1  -- C 9                   -0.18        2.47096
              C 22 -- C 24                  -0.18        2.47096
              C 4  -- C 14                  -0.18        2.47098
              C 3  -- C 11                  -0.18        2.47104
              C 22 -- C 30                  -0.18        2.47106
              C 10 -- C 20                  -0.18        2.47108
              C 30 -- C 32                  -0.17        2.47112
              C 6  -- C 8                   -0.17        2.47117
              C 25 -- C 27                  -0.17        2.47120
              C 1  -- C 3                   -0.18        2.47123
              C 19 -- C 29                  -0.17        2.47124
              C 17 -- C 27                  -0.17        2.47125
              C 11 -- C 19                  -0.18        2.47131
              C 11 -- C 13                  -0.18        2.47132
              C 9  -- C 17                  -0.17        2.47133
              C 10 -- C 18                  -0.18        2.47133
              C 4  -- C 6                   -0.17        2.47134
              C 7  -- C 15                  -0.17        2.47135
              C 5  -- C 13                  -0.18        2.47136
              C 12 -- C 20                  -0.18        2.47138
              C 24 -- C 32                  -0.18        2.47152
              C 20 -- C 30                  -0.17        2.47158
              C 28 -- C 30                  -0.17        2.47160
              C 16 -- C 24                  -0.18        2.47161
              C 13 -- C 21                  -0.17        2.47161
              C 22 -- C 32                  -0.17        2.47163
              C 17 -- C 19                  -0.18        2.47163
              C 14 -- C 16                  -0.18        2.47165
              C 15 -- C 23                  -0.17        2.47172
              C 19 -- C 21                  -0.17        2.47174
              C 20 -- C 22                  -0.17        2.47177
              C 12 -- C 14                  -0.18        2.47182
              C 6  -- C 16                  -0.17        2.47187
              C 14 -- C 22                  -0.18        2.47194
              C 3  -- C 13                  -0.17        2.47200
              C 27 -- C 29                  -0.17        2.47203
              C 9  -- C 11                  -0.18        2.47210
              C 11 -- C 21                  -0.17        2.47212
              C 1  -- C 11                  -0.17        2.47216
              C 14 -- C 24                  -0.17        2.47236
              C 3  -- C 5                   -0.17        2.47244
              C 12 -- C 22                  -0.17        2.47247
              C 9  -- C 19                  -0.17        2.47251
              C 9  -- C 16                  -0.10        2.84866
              C 2  -- C 7                   -0.10        2.84915
              C 17 -- C 24                  -0.10        2.84933
              C 25 -- C 32                  -0.10        2.84939
              C 1  -- C 8                   -0.10        2.84949
              C 6  -- C 19                  -0.10        2.84960
              C 14 -- C 27                  -0.10        2.84963
              C 26 -- C 31                  -0.10        2.84985
              C 10 -- C 31                  -0.10        2.84999
              C 10 -- C 15                  -0.10        2.85001
              C 8  -- C 21                  -0.10        2.85003
              C 4  -- C 17                  -0.10        2.85009
              C 12 -- C 25                  -0.10        2.85024
              C 16 -- C 29                  -0.10        2.85025
              C 2  -- C 23                  -0.10        2.85043
              C 18 -- C 23                  -0.10        2.85043
              C 5  -- C 8                   -0.10        2.85057
              C 29 -- C 32                  -0.10        2.85077
              C 25 -- C 28                  -0.10        2.85149
              C 27 -- C 30                  -0.10        2.85179
              C 1  -- C 4                   -0.10        2.85180
              C 3  -- C 6                   -0.10        2.85199
              C 21 -- C 24                  -0.10        2.85219
              C 2  -- C 3                   -0.10        2.85224
              C 17 -- C 20                  -0.10        2.85242
              C 9  -- C 12                  -0.10        2.85244
              C 13 -- C 16                  -0.10        2.85261
              C 19 -- C 22                  -0.10        2.85264
              C 11 -- C 14                  -0.10        2.85275
              C 26 -- C 27                  -0.10        2.85276
              C 22 -- C 23                  -0.10        2.85283
              C 30 -- C 31                  -0.10        2.85314
              C 14 -- C 15                  -0.10        2.85349
              C 18 -- C 19                  -0.10        2.85358
              C 11 -- C 30                  -0.10        2.85388
              C 6  -- C 7                   -0.10        2.85389
              C 10 -- C 11                  -0.10        2.85397
              C 15 -- C 26                  -0.10        2.85413
              C 7  -- C 18                  -0.10        2.85419
              C 5  -- C 24                  -0.10        2.85422
              C 9  -- C 28                  -0.10        2.85430
              C 1  -- C 20                  -0.10        2.85431
              C 3  -- C 22                  -0.10        2.85441
              C 13 -- C 32                  -0.10        2.85464
              C 12 -- C 13                  -0.10        2.85528
              C 20 -- C 21                  -0.10        2.85534
              C 28 -- C 29                  -0.10        2.85539
              C 4  -- C 5                   -0.10        2.85559
======================================================================
 

Writing analysis data to 4x4.castep_bin

Writing model to 4x4.check
 
 A BibTeX formatted list of references used in this run has been written to 
 4x4.bib
 
Initialisation time =      3.05 s
Calculation time    =  13278.46 s
Finalisation time   =      1.69 s
Total time          =  13283.20 s
Peak Memory Use     = 1025496 kB
  
Overall parallel efficiency rating: Mediocre (53%)                              
  
Data was distributed by:-
G-vector (16-way); efficiency rating: Mediocre (55%)                            
k-point (8-way); efficiency rating: Excellent (94%)                             
