 +-------------------------------------------------+
 |                                                 |
 |      CCC   AA    SSS  TTTTT  EEEEE  PPPP        |
 |     C     A  A  S       T    E      P   P       |
 |     C     AAAA   SS     T    EEE    PPPP        |
 |     C     A  A     S    T    E      P           |
 |      CCC  A  A  SSS     T    EEEEE  P           |
 |                                                 |
 +-------------------------------------------------+
 |                                                 |
 | Welcome to Academic Release CASTEP version 21.11|          
 | Ab Initio Total Energy Program                  |
 |                                                 |
 | Authors:                                        |
 | M. Segall, M. Probert, C. Pickard, P. Hasnip,   |
 | S. Clark, K. Refson, J. R. Yates, M. Payne      |
 |                                                 |
 | Contributors:                                   |
 | P. Lindan, P. Haynes, J. White, V. Milman,      |
 | N. Govind, M. Gibson, P. Tulip, V. Cocula,      |
 | B. Montanari, D. Quigley, M. Glover,            |
 | L. Bernasconi, A. Perlov, M. Plummer,           |
 | E. McNellis, J. Meyer, J. Gale, D. Jochym       |
 | J. Aarons, B. Walker, R. Gillen, D. Jones       |
 | T. Green, I. J. Bush, C. J. Armstrong,          |
 | E. J. Higgins, E. L. Brown, M. S. McFly,        |
 | J. Wilkins, B-C. Shih, P. J. P. Byrne,          |
 | R. J. Maurer, J. C. Womack, J. Dziedzic,        |
 | A. Bartok-Partay, L. LeBlanc                    |
 |                                                 |
 | Copyright (c) 2000 - 2021                       |
 |                                                 |
 |     Distributed under license from Cambridge    |
 |     Enterprise for academic use only.           |
 |                                                 |
 | Please cite                                     |
 |                                                 |
 |     "First principles methods using CASTEP"     |
 |                                                 |
 |         Zeitschrift fuer Kristallographie       |
 |           220(5-6) pp. 567-570 (2005)           |
 |                                                 |
 | S. J. Clark, M. D. Segall, C. J. Pickard,       |
 | P. J. Hasnip, M. J. Probert, K. Refson,         |
 | M. C. Payne                                     |
 |                                                 |
 |       in all publications arising from          |
 |              your use of CASTEP                 |
 |                                                 |
 +-------------------------------------------------+
 |                                                 |
 |              http://www.castep.org              |
 |                                                 |
 +-------------------------------------------------+
 
 
 
 Compiled for linux_x86_64_cray-XT on Tue, 01 Mar 2022 09:19:15 +0000
 from code version 7d4405a8a+  HEAD  Sat Nov 27 13:38:33 2021 +0000
 Compiler: Cray Fortran 12.0.3; Optimisation: fast
 MATHLIBS: LibSci (LAPACK version 3.6.1)
 FFT Lib : fftw3 version commercial-fftw-3.3.8-sse2-avx-avx2-avx2_128
 Fundamental constants values: CODATA 2014
 
 Run started: Thu, 27 Oct 2022 12:19:41 -0100
 
 Atomic calculation performed for H: 1s1
 
 Converged in 41 iterations to an ae energy of -12.488 eV
 
   ============================================================                
   | Pseudopotential Report - Date of generation 27-10-2022   |                
   ------------------------------------------------------------                
   | Element: H Ionic charge:  1.00 Level of theory: PBE      |                
   | Atomic Solver: Koelling-Harmon                           |                
   |                                                          |                
   |               Reference Electronic Structure             |                
   |         Orbital         Occupation         Energy        |                
   |            1s              1.000           -0.239        |                
   |                                                          |                
   |                 Pseudopotential Definition               |                
   |        Beta     l      e      Rc     scheme   norm       |                
   |          1      0   -0.239   0.599     qc      0         |                
   |          2      0    0.250   0.599     qc      0         |                
   |         loc     1    0.000   0.599     pn      0         |                
   |                                                          |                
   | Augmentation charge Rinner = 0.421                       |                
   | No partial core correction                               |                
   ------------------------------------------------------------                
   | "1|0.6|13|15|17|10(qc=8)"                                |                
   ------------------------------------------------------------                
   |      Author: Chris J. Pickard, Cambridge University      |                
   ============================================================                
 
 Atomic calculation performed for C: 1s2 2s2 2p2
 
 Converged in 54 iterations to an ae energy of -1027.632 eV
 
   ============================================================                
   | Pseudopotential Report - Date of generation 27-10-2022   |                
   ------------------------------------------------------------                
   | Element: C Ionic charge:  4.00 Level of theory: PBE      |                
   | Atomic Solver: Koelling-Harmon                           |                
   |                                                          |                
   |               Reference Electronic Structure             |                
   |         Orbital         Occupation         Energy        |                
   |            2s              2.000           -0.505        |                
   |            2p              2.000           -0.194        |                
   |                                                          |                
   |                 Pseudopotential Definition               |                
   |        Beta     l      e      Rc     scheme   norm       |                
   |          1      0   -0.505   1.201     qc      1         |                
   |         loc     1   -0.194   1.201     qc      1         |                
   |                                                          |                
   | No charge augmentation                                   |                
   | Partial core correction Rc = 0.839                       |                
   ------------------------------------------------------------                
   | "1|1.2|17|20|23|20N:21L(qc=8)"                           |                
   ------------------------------------------------------------                
   |      Author: Chris J. Pickard, Cambridge University      |                
   ============================================================                
 
 Pseudo atomic calculation performed for H 1s1
 
 Converged in 13 iterations to a total energy of -12.4856 eV
 
 Pseudo atomic calculation performed for C 2s2 2p2
 
 Converged in 18 iterations to a total energy of -152.4291 eV
 Calculation parallelised over 128 processes.
 Data is distributed by G-vector(16-way) and k-point(8-way)

 ************************************ Title ************************************
 

 ***************************** General Parameters ******************************
  
 output verbosity                               : normal  (1)
 write checkpoint data to                       : 4x4.check
 type of calculation                            : geometry optimization
 stress calculation                             : off
 density difference calculation                 : off
 electron localisation func (ELF) calculation   : off
 Hirshfeld analysis                             : off
 polarisation (Berry phase) analysis            : off
 molecular orbital projected DOS                : off
 deltaSCF calculation                           : off
 unlimited duration calculation
 timing information                             : on
 memory usage estimate                          : on
 write extra output files                       : on
 write final potential to formatted file        : off
 write final density to formatted file          : off
 write structure in CELL formatted file         : on
 write BibTeX reference list                    : on
 write OTFG pseudopotential files               : on
 write electrostatic potential file             : on
 write bands file                               : on
 checkpoint writing                             : both castep_bin and check files
  
 output         length unit                     : A
 output           mass unit                     : amu
 output           time unit                     : ps
 output         charge unit                     : e
 output           spin unit                     : hbar/2
 output         energy unit                     : eV
 output          force unit                     : eV/A
 output       velocity unit                     : A/ps
 output       pressure unit                     : GPa
 output     inv_length unit                     : 1/A
 output      frequency unit                     : cm-1
 output force constant unit                     : eV/A**2
 output         volume unit                     : A**3
 output   IR intensity unit                     : (D/A)**2/amu
 output         dipole unit                     : D
 output         efield unit                     : eV/A/e
 output        entropy unit                     : J/mol/K
 output    efield chi2 unit                     : pm/V
  
 wavefunctions paging                           : none
 random number generator seed                   : randomised (121941465)
 data distribution                              : optimal for this architecture
 optimization strategy                          : maximize speed(+++)

 *********************** Exchange-Correlation Parameters ***********************
  
 using functional                               : Perdew Burke Ernzerhof
 relativistic treatment                         : Koelling-Harmon
 DFT+D: Semi-empirical dispersion correction    : on
 SEDC with                                      : MBD@rsSCS method

 ************************* Pseudopotential Parameters **************************
  
 pseudopotential representation                 : reciprocal space
 <beta|phi> representation                      : reciprocal space
 spin-orbit coupling                            : off

 **************************** Basis Set Parameters *****************************
  
 plane wave basis set cut-off                   :   800.0000   eV
 size of standard grid                          :     1.7500
 size of   fine   gmax                          :    25.3584   1/A
 finite basis set correction                    : none

 **************************** Electronic Parameters ****************************
  
 number of  electrons                           :  129.0    
 net charge of system                           :  0.000    
 net spin   of system                           :  1.000    
 number of  up  spins                           :  65.00    
 number of down spins                           :  64.00    
 treating system as spin-polarized
 number of bands                                :         98

 ********************* Electronic Minimization Parameters **********************
  
 Method: Treating system as metallic with density mixing treatment of electrons,
         and number of  SD  steps               :          1
         and number of  CG  steps               :          4
  
 total energy / atom convergence tol.           : 0.1000E-05   eV
 eigen-energy convergence tolerance             : 0.3367E-06   eV
 max force / atom convergence tol.              : ignored
 convergence tolerance window                   :          3   cycles
 max. number of SCF cycles                      :        100
 number of fixed-spin iterations                :         10
 smearing scheme                                : Gaussian
 smearing width                                 : 0.2000       eV
 Fermi energy convergence tolerance             : 0.2721E-13   eV
 periodic dipole correction                     : NONE

 ************************** Density Mixing Parameters **************************
  
 density-mixing scheme                          : Pulay
 max. length of mixing history                  :         20
 charge density mixing amplitude                : 0.8000    
   spin density mixing amplitude                :  2.000    
 cut-off energy for mixing                      :  800.0       eV

 *********************** Population Analysis Parameters ************************
  
 Population analysis with cutoff                :  3.000       A
 Population analysis output                     : summary and pdos components

 ********************** Geometry Optimization Parameters ***********************
  
 optimization method                            : LBFGS
 max. no. of LBFGS updates                      : unbounded
 variable cell method                           : fixed basis quality
 max. number of steps                           :        100
 estimated bulk modulus                         :  500.0       GPa
 estimated <frequency>                          :  1668.       cm-1
 geom line minimiser                            : on
 with line minimiser tolerance                  :     0.4000
  with spin fully able to relax for all steps
 total energy convergence tolerance             : 0.2000E-04   eV/atom
        max ionic |force| tolerance             : 0.1000E-01   eV/A
 max ionic |displacement| tolerance             : 0.1000E-02   A
   max |stress component| tolerance             : 0.1000       GPa
 convergence tolerance window                   :          2   steps
 backup results every                           :          5   steps
 write geom trajectory file                     : on

 *******************************************************************************
  
 
                           -------------------------------
                                      Unit Cell
                           -------------------------------
        Real Lattice(A)                      Reciprocal Lattice(1/A)
     9.8800000     0.0000000     0.0000000        0.635949930   0.367165863   0.000000000
    -4.9400000     8.5563310     0.0000000        0.000000000   0.734331726   0.000000000
     0.0000000     0.0000000    20.0339000        0.000000000   0.000000000   0.313627666
 
                       Lattice parameters(A)       Cell Angles
                    a =      9.880000          alpha =   90.000000
                    b =      9.880000          beta  =   90.000000
                    c =     20.033900          gamma =  120.000000
 
                       Current cell volume =          1693.596795       A**3
                                   density =             0.227534   AMU/A**3
                                           =             0.377829     g/cm^3
 
                           -------------------------------
                                     Cell Contents
                           -------------------------------
                         Total number of ions in cell =   33
                      Total number of species in cell =    2
                        Max number of any one species =   32
 
            xxxxxxxxxxxxxxxxxxxxxxxxxxxxxxxxxxxxxxxxxxxxxxxxxxxxxxxxxxxx
            x  Element    Atom        Fractional coordinates of atoms  x
            x            Number           u          v          w      x
            x----------------------------------------------------------x
            x  H            1         0.494823   0.501025   0.550279   x 
            x  C            1         0.166476   0.083155   0.500002   x 
            x  C            2        -0.000100  -0.000140   0.500002   x 
            x  C            3         0.166447   0.333239   0.500002   x 
            x  C            4        -0.000173   0.249815   0.500002   x 
            x  C            5         0.166520   0.583404   0.500002   x 
            x  C            6        -0.000108   0.499946   0.500002   x 
            x  C            7         0.166543   0.833430   0.500002   x 
            x  C            8        -0.000049   0.750064   0.500002   x 
            x  C            9         0.416557   0.083155   0.500002   x 
            x  C           10         0.249870  -0.000199   0.500002   x 
            x  C           11         0.416592   0.333285   0.500002   x 
            x  C           12         0.249853   0.249827   0.500002   x 
            x  C           13         0.416666   0.583474   0.500002   x 
            x  C           14         0.249889   0.499981   0.500002   x 
            x  C           15         0.416657   0.833476   0.500002   x 
            x  C           16         0.249960   0.750123   0.500002   x 
            x  C           17         0.666714   0.083225   0.500002   x 
            x  C           18         0.500005  -0.000152   0.500002   x 
            x  C           19         0.666769   0.333356   0.500002   x 
            x  C           20         0.500012   0.249862   0.500002   x 
            x  C           21         0.666815   0.583509   0.500002   x 
            x  C           22         0.500066   0.500051   0.500002   x 
            x  C           23         0.666788   0.833535   0.500002   x 
            x  C           24         0.500117   0.750193   0.500002   x 
            x  C           25         0.916717   0.083272   0.500002   x 
            x  C           26         0.750125  -0.000093   0.500002   x 
            x  C           27         0.916770   0.333379   0.500002   x 
            x  C           28         0.750152   0.249920   0.500002   x 
            x  C           29         0.916836   0.583509   0.500002   x 
            x  C           30         0.750215   0.500086   0.500002   x 
            x  C           31         0.916769   0.833476   0.500002   x 
            x  C           32         0.750202   0.750181   0.500002   x 
            xxxxxxxxxxxxxxxxxxxxxxxxxxxxxxxxxxxxxxxxxxxxxxxxxxxxxxxxxxxx
 
 
                         No user defined ionic velocities
 
                           -------------------------------
                                   Details of Species
                           -------------------------------
 
                               Mass of species in AMU
                                    H    1.0079400
                                    C   12.0107000
 
                          Electric Quadrupole Moment (Barn)
                                    H    0.0028600 Isotope  2
                                    C    0.0332700 Isotope 11
 
                          Files used for pseudopotentials:
                                    H 1|0.6|13|15|17|10(qc=8)
                                    C 1|1.2|17|20|23|20N:21L(qc=8)
 
                           -------------------------------
                              k-Points For BZ Sampling
                           -------------------------------
                       MP grid size for SCF calculation is  4  4  1
                            with an offset of   0.000  0.000  0.000
                       Number of kpoints used =   8
 
                           -------------------------------
                               Symmetry and Constraints
                           -------------------------------
 
                      Maximum deviation from symmetry =  0.00000         ANG
 
                      Number of symmetry operations   = 1
         There are no ionic constraints specified or generated for this cell
                      Point group of crystal =     1: C1, 1, 1
                      Space group of crystal =     1: P1, P 1
 
             Set iprint > 1 for details on symmetry rotations/translations
 
                         Centre of mass is NOT constrained
 
                         Number of cell constraints= 6
                         Cell constraints are:  0 0 0 0 0 0
 
                         External pressure/stress (GPa)
                          0.00000   0.00000   0.00000
                                    0.00000   0.00000
                                              0.00000
 
                                --------------------
                                  DFT-D parameters
                                --------------------
 
                          Dispersion-correction scheme : MBD*      
                        Parameter sR :   0.830000 (default)
 
        xxxxxxxxxxxxxxxxxxxxxxxxxxxxxxxxxxxxxxxxxxxxxxxxxxxxxxxxxxxxxxxxxxxx
        x              Atomic DFT-D parameters                             x
        x  Species      C6            alpha        R0                      x
        x               eV A^6        A^3          A                       x
        x------------------------------------------------------------------x
        x  H             3.8839       0.6668       1.6404   (default)      x
        x  C            27.8448       1.7782       1.8997   (default)      x
        xxxxxxxxxxxxxxxxxxxxxxxxxxxxxxxxxxxxxxxxxxxxxxxxxxxxxxxxxxxxxxxxxxxx
 
  
+---------------- MEMORY AND SCRATCH DISK ESTIMATES PER PROCESS --------------+
|                                                     Memory          Disk    |
| Baseline code, static data and system overhead      770.0 MB         0.0 MB |
| BLAS internal memory storage                          0.0 MB         0.0 MB |
| Model and support data                               49.8 MB         0.0 MB |
| Electronic energy minimisation requirements          85.3 MB         0.0 MB |
| Force calculation requirements                       20.6 MB         0.0 MB |
|                                               ----------------------------- |
| Approx. total storage required per process          905.1 MB         0.0 MB |
|                                                                             |
| Requirements will fluctuate during execution and may exceed these estimates |
+-----------------------------------------------------------------------------+
Calculating approximate eigenstates for fixed initial Hamiltonian
Cut-off for approx. calculation is  119.774 eV
Improving approx. states at cut-off of  462.594 eV
Resetting cut-off to  800.000 eV
Calculating total energy with cut-off of  800.000 eV.
------------------------------------------------------------------------ <-- SCF
SCF loop      Energy           Fermi           Energy gain       Timer   <-- SCF
                               energy          per atom          (sec)   <-- SCF
------------------------------------------------------------------------ <-- SCF
Initial  -4.73423144E+003  0.00000000E+000                        15.47  <-- SCF
      1  -5.19927421E+003 -5.35408478E+000   1.40922052E+001      26.59  <-- SCF
      2  -5.19949414E+003 -5.35525196E+000   6.66452773E-003      38.25  <-- SCF
      3  -5.18619162E+003 -4.05157943E+000  -4.03106545E-001      50.62  <-- SCF
      4  -5.18537440E+003 -3.54172872E+000  -2.47643048E-002      63.24  <-- SCF
      5  -5.18513455E+003 -3.29854162E+000  -7.26817214E-003      76.11  <-- SCF
      6  -5.18505468E+003 -3.08614968E+000  -2.42033352E-003      87.64  <-- SCF
      7  -5.18500768E+003 -2.87439463E+000  -1.42430460E-003      99.13  <-- SCF
      8  -5.18495143E+003 -2.70450026E+000  -1.70448561E-003     110.69  <-- SCF
      9  -5.18493511E+003 -2.57202242E+000  -4.94698140E-004     122.37  <-- SCF
     10  -5.18504762E+003 -2.24393605E+000   3.40946722E-003     134.16  <-- SCF
     11  -5.18333150E+003 -2.23727030E+000  -5.20036064E-002     145.40  <-- SCF
     12  -5.18478049E+003 -2.22318993E+000   4.39087280E-002     156.77  <-- SCF
     13  -5.18394059E+003 -2.20430663E+000  -2.54513907E-002     167.90  <-- SCF
     14  -5.18471808E+003 -2.18121173E+000   2.35603200E-002     179.14  <-- SCF
     15  -5.18455389E+003 -2.14063280E+000  -4.97562546E-003     190.11  <-- SCF
     16  -5.18477099E+003 -2.08425744E+000   6.57894546E-003     202.03  <-- SCF
     17  -5.18499531E+003 -2.02477606E+000   6.79739487E-003     214.02  <-- SCF
     18  -5.18511002E+003 -1.96483846E+000   3.47604693E-003     226.23  <-- SCF
     19  -5.18507120E+003 -1.92751935E+000  -1.17612305E-003     237.74  <-- SCF
     20  -5.18502236E+003 -1.90644012E+000  -1.48011292E-003     248.84  <-- SCF
     21  -5.18495084E+003 -1.88830345E+000  -2.16730661E-003     259.08  <-- SCF
     22  -5.18501358E+003 -1.85973818E+000   1.90130967E-003     268.85  <-- SCF
     23  -5.18511170E+003 -1.83177046E+000   2.97315498E-003     279.56  <-- SCF
     24  -5.18511914E+003 -1.81588736E+000   2.25692379E-004     290.13  <-- SCF
     25  -5.18512196E+003 -1.81051004E+000   8.54259909E-005     300.64  <-- SCF
     26  -5.18512338E+003 -1.80868342E+000   4.30205097E-005     310.67  <-- SCF
     27  -5.18512393E+003 -1.80774564E+000   1.66833050E-005     320.24  <-- SCF
     28  -5.18512410E+003 -1.80682576E+000   5.04935881E-006     330.02  <-- SCF
     29  -5.18512431E+003 -1.80584070E+000   6.23609473E-006     339.78  <-- SCF
     30  -5.18512437E+003 -1.80529488E+000   1.86766329E-006     349.76  <-- SCF
     31  -5.18512439E+003 -1.80497388E+000   7.75939206E-007     359.82  <-- SCF
     32  -5.18512442E+003 -1.80460783E+000   7.04937268E-007     369.59  <-- SCF
     33  -5.18512442E+003 -1.80442768E+000   2.02461687E-008     379.61  <-- SCF
------------------------------------------------------------------------ <-- SCF
 
Integrated Spin Density     =   -0.383259E-04 hbar/2                        
Integrated |Spin Density|   =    0.686808E-03 hbar/2                        
 
Final energy, E             =  -5185.059806673     eV
Final free energy (E-TS)    =  -5185.124416548     eV
(energies not corrected for finite basis set)
 
NB est. 0K energy (E-0.5TS)      =  -5185.092111610     eV
 
 WARNING: Your unit cell might be too small to get accurate results for van der Waals
(SEDC) Total Energy Correction : -0.274944E+01 eV

Dispersion corrected final energy*, Ecor          =  -5187.809244725     eV
Dispersion corrected final free energy* (Ecor-TS) =  -5187.873854600     eV
NB dispersion corrected est. 0K energy* (Ecor-0.5TS) =  -5187.841549663     eV

Writing analysis data to 4x4.castep_bin

Writing model to 4x4.check
 
+---------------- MEMORY AND SCRATCH DISK ESTIMATES PER PROCESS --------------+
|                                                     Memory          Disk    |
| Model and support data                               54.8 MB         0.0 MB |
| Electronic energy minimisation requirements          85.3 MB         0.0 MB |
| Geometry minimisation requirements                  103.8 MB         0.0 MB |
|                                               ----------------------------- |
| Approx. total storage required per process          243.8 MB         0.0 MB |
|                                                                             |
| Requirements will fluctuate during execution and may exceed these estimates |
+-----------------------------------------------------------------------------+
 
 
 ************************************** Forces **************************************
 *                                                                                  *
 *                           Cartesian components (eV/A)                            *
 * -------------------------------------------------------------------------------- *
 *                         x                    y                    z              *
 *                                                                                  *
 * H               1     -0.02990              0.00120              5.33060         *
 * C               1      0.15698             -0.07758              0.03535         *
 * C               2     -0.21126              0.12320             -0.00875         *
 * C               3     -0.43420             -0.26862             -0.03419         *
 * C               4      0.29063              0.18800              0.00647         *
 * C               5      0.03828              0.15388              0.03835         *
 * C               6     -0.02401             -0.22290             -0.00841         *
 * C               7      0.00790             -0.00280             -0.00633         *
 * C               8     -0.04296              0.00286             -0.00163         *
 * C               9     -0.11860             -0.08300              0.03436         *
 * C              10     -0.01616              0.02450             -0.00218         *
 * C              11      0.03829             -3.02589             -1.29405         *
 * C              12      0.48966              0.09816              0.00313         *
 * C              13     -2.70701              1.57292             -1.46156         *
 * C              14      0.28692              0.39619              0.00874         *
 * C              15     -0.11455             -0.10824              0.03826         *
 * C              16     -0.00744              0.00039             -0.00294         *
 * C              17     -0.20774             -0.15084              0.00020         *
 * C              18      0.18607              0.13092             -0.00892         *
 * C              19      0.48720             -0.28232             -0.03171         *
 * C              20     -0.53473              0.10621              0.00354         *
 * C              21      2.58438              1.46106             -1.19807         *
 * C              22      0.18963             -0.02976             -1.49492         *
 * C              23      0.02128              0.51821             -0.03248         *
 * C              24     -0.19169             -0.45421              0.00993         *
 * C              25      0.25079             -0.14209              0.00130         *
 * C              26     -0.01278             -0.35745              0.00633         *
 * C              27      0.02522              0.26109              0.00039         *
 * C              28     -0.33982              0.19357              0.00646         *
 * C              29      0.00548              0.14225              0.03172         *
 * C              30     -0.36837              0.42609             -0.00103         *
 * C              31      0.14673             -0.09798              0.03259         *
 * C              32      0.15579             -0.49703             -0.00057         *
 *                                                                                  *
 ************************************************************************************
 LBFGS: finished iteration     0 with enthalpy= -5.18787385E+003 eV
  
 +-----------+-----------------+-----------------+------------+-----+ <-- LBFGS
 | Parameter |      value      |    tolerance    |    units   | OK? | <-- LBFGS
 +-----------+-----------------+-----------------+------------+-----+ <-- LBFGS
 |  dE/ion   |   0.000000E+000 |   2.000000E-005 |         eV | No  | <-- LBFGS
 |  |F|max   |   5.330686E+000 |   1.000000E-002 |       eV/A | No  | <-- LBFGS
 |  |dR|max  |   0.000000E+000 |   1.000000E-003 |          A | No  | <-- LBFGS
 +-----------+-----------------+-----------------+------------+-----+ <-- LBFGS
  

================================================================================
 Starting LBFGS iteration          1 ...
================================================================================
  
 +------------+-------------+-------------+-----------------+ <-- min LBFGS
 |    Step    |   lambda    |   F.delta'  |    enthalpy     | <-- min LBFGS
 +------------+-------------+-------------+-----------------+ <-- min LBFGS
 |  previous  |    0.000000 |    3.463663 |    -5187.873855 | <-- min LBFGS
 +------------+-------------+-------------+-----------------+ <-- min LBFGS
  

--------------------------------------------------------------------------------
 LBFGS: starting iteration         1 with trial guess (lambda=  1.000000)
--------------------------------------------------------------------------------
 
                           -------------------------------
                                     Cell Contents
                           -------------------------------
 
            xxxxxxxxxxxxxxxxxxxxxxxxxxxxxxxxxxxxxxxxxxxxxxxxxxxxxxxxxxxxxxxxx
            x  Element         Atom        Fractional coordinates of atoms  x
            x                 Number           u          v          w      x
            x---------------------------------------------------------------x
            x  H                 1         0.494799   0.501026   0.552507   x
            x  C                 1         0.166571   0.083079   0.500017   x
            x  C                 2        -0.000219  -0.000020   0.499999   x
            x  C                 3         0.165948   0.332976   0.499988   x
            x  C                 4         0.000165   0.249999   0.500005   x
            x  C                 5         0.166628   0.583555   0.500019   x
            x  C                 6        -0.000238   0.499727   0.499999   x
            x  C                 7         0.166548   0.833427   0.500000   x
            x  C                 8        -0.000084   0.750067   0.500002   x
            x  C                 9         0.416416   0.083074   0.500017   x
            x  C                10         0.249869  -0.000175   0.500002   x
            x  C                11         0.415144   0.330325   0.499462   x
            x  C                12         0.250316   0.249923   0.500004   x
            x  C                13         0.415142   0.585013   0.499392   x
            x  C                14         0.250326   0.500368   0.500006   x
            x  C                15         0.416507   0.833371   0.500018   x
            x  C                16         0.249954   0.750123   0.500001   x
            x  C                17         0.666464   0.083077   0.500003   x
            x  C                18         0.500227  -0.000024   0.499999   x
            x  C                19         0.667044   0.333079   0.499989   x
            x  C                20         0.499611   0.249966   0.500004   x
            x  C                21         0.669720   0.584939   0.499502   x
            x  C                22         0.500212   0.500022   0.499378   x
            x  C                23         0.667059   0.834042   0.499989   x
            x  C                24         0.499732   0.749749   0.500007   x
            x  C                25         0.916860   0.083133   0.500003   x
            x  C                26         0.749940  -0.000443   0.500005   x
            x  C                27         0.916920   0.333634   0.500003   x
            x  C                28         0.749959   0.250110   0.500005   x
            x  C                29         0.916910   0.583649   0.500016   x
            x  C                30         0.750111   0.500503   0.500002   x
            x  C                31         0.916845   0.833381   0.500016   x
            x  C                32         0.750091   0.749695   0.500002   x
            xxxxxxxxxxxxxxxxxxxxxxxxxxxxxxxxxxxxxxxxxxxxxxxxxxxxxxxxxxxxxxxxx
 
 
------------------------------------------------------------------------ <-- SCF
SCF loop      Energy           Fermi           Energy gain       Timer   <-- SCF
                               energy          per atom          (sec)   <-- SCF
------------------------------------------------------------------------ <-- SCF
Initial  -5.18274374E+003  0.00000000E+000                       388.61  <-- SCF
      1  -5.18552138E+003 -1.84476104E+000   8.41709188E-002     398.31  <-- SCF
      2  -5.18553843E+003 -1.84535723E+000   5.16382747E-004     412.80  <-- SCF
      3  -5.18551546E+003 -1.85483330E+000  -6.96012298E-004     425.01  <-- SCF
      4  -5.18551415E+003 -1.85167154E+000  -3.95033242E-005     437.09  <-- SCF
      5  -5.18551434E+003 -1.85173479E+000   5.60346761E-006     449.34  <-- SCF
      6  -5.18551433E+003 -1.85118678E+000  -2.67622789E-007     459.26  <-- SCF
      7  -5.18551433E+003 -1.85110596E+000  -8.92953805E-009     468.94  <-- SCF
      8  -5.18551433E+003 -1.85101295E+000   1.19732868E-007     478.31  <-- SCF
------------------------------------------------------------------------ <-- SCF
 
Integrated Spin Density     =   -0.366799E-04 hbar/2                        
Integrated |Spin Density|   =    0.532841E-03 hbar/2                        
 
Final energy, E             =  -5185.444801018     eV
Final free energy (E-TS)    =  -5185.514333147     eV
(energies not corrected for finite basis set)
 
NB est. 0K energy (E-0.5TS)      =  -5185.479567083     eV
 
(SEDC) Total Energy Correction : -0.275111E+01 eV

Dispersion corrected final energy*, Ecor          =  -5188.195910405     eV
Dispersion corrected final free energy* (Ecor-TS) =  -5188.265442534     eV
NB dispersion corrected est. 0K energy* (Ecor-0.5TS) =  -5188.230676470     eV
 
 ************************************** Forces **************************************
 *                                                                                  *
 *                           Cartesian components (eV/A)                            *
 * -------------------------------------------------------------------------------- *
 *                         x                    y                    z              *
 *                                                                                  *
 * H               1      0.08663             -0.01443              2.77132         *
 * C               1      0.02305             -0.05056              0.04228         *
 * C               2     -0.01951              0.01070              0.00560         *
 * C               3      0.02253              0.00104             -0.02315         *
 * C               4      0.07463              0.04917              0.01240         *
 * C               5     -0.03672              0.03893              0.04595         *
 * C               6     -0.00786             -0.01199              0.00628         *
 * C               7     -0.00314             -0.00026             -0.01255         *
 * C               8      0.03554              0.03033             -0.00130         *
 * C               9     -0.00733             -0.05536              0.04197         *
 * C              10     -0.00387             -0.05031             -0.00172         *
 * C              11      0.03147             -1.12249             -1.15302         *
 * C              12     -0.04094             -0.37143             -0.06721         *
 * C              13     -0.97398              0.56953             -1.28395         *
 * C              14     -0.36944              0.16521             -0.07054         *
 * C              15     -0.05100              0.01269              0.04608         *
 * C              16     -0.05506              0.03060             -0.00233         *
 * C              17     -0.07855             -0.05866             -0.00088         *
 * C              18      0.01175              0.01003              0.00633         *
 * C              19      0.00004              0.00425             -0.02263         *
 * C              20      0.02608             -0.37878             -0.06528         *
 * C              21      0.97982              0.53861             -1.07761         *
 * C              22     -0.06518              0.01053              0.92285         *
 * C              23      0.01697             -0.02320             -0.02222         *
 * C              24     -0.32616              0.24035             -0.06892         *
 * C              25      0.09775             -0.05525              0.00047         *
 * C              26     -0.00023             -0.09130              0.01179         *
 * C              27      0.00804              0.10003             -0.00056         *
 * C              28     -0.08908              0.05095              0.01103         *
 * C              29      0.03542              0.03522              0.03922         *
 * C              30      0.33015              0.17083             -0.06436         *
 * C              31      0.05050              0.00229              0.03961         *
 * C              32      0.29770              0.21273             -0.06493         *
 *                                                                                  *
 ************************************************************************************
  
 +------------+-------------+-------------+-----------------+ <-- min LBFGS
 |    Step    |   lambda    |   F.delta'  |    enthalpy     | <-- min LBFGS
 +------------+-------------+-------------+-----------------+ <-- min LBFGS
 |  previous  |    0.000000 |    3.463663 |    -5187.873855 | <-- min LBFGS
 | trial step |    1.000000 |    1.455222 |    -5188.265443 | <-- min LBFGS
 +------------+-------------+-------------+-----------------+ <-- min LBFGS
  

--------------------------------------------------------------------------------
 LBFGS: improving iteration         1 with line minimization (lambda=  1.724553)
--------------------------------------------------------------------------------
 
                           -------------------------------
                                     Cell Contents
                           -------------------------------
 
            xxxxxxxxxxxxxxxxxxxxxxxxxxxxxxxxxxxxxxxxxxxxxxxxxxxxxxxxxxxxxxxxx
            x  Element         Atom        Fractional coordinates of atoms  x
            x                 Number           u          v          w      x
            x---------------------------------------------------------------x
            x  H                 1         0.494781   0.501027   0.554121   x
            x  C                 1         0.166640   0.083024   0.500028   x
            x  C                 2        -0.000305   0.000068   0.499996   x
            x  C                 3         0.165586   0.332785   0.499978   x
            x  C                 4         0.000410   0.250132   0.500007   x
            x  C                 5         0.166706   0.583664   0.500030   x
            x  C                 6        -0.000331   0.499569   0.499996   x
            x  C                 7         0.166552   0.833425   0.499998   x
            x  C                 8        -0.000109   0.750069   0.500001   x
            x  C                 9         0.416314   0.083015   0.500027   x
            x  C                10         0.249867  -0.000157   0.500001   x
            x  C                11         0.414095   0.328180   0.499070   x
            x  C                12         0.250651   0.249992   0.500005   x
            x  C                13         0.414038   0.586128   0.498949   x
            x  C                14         0.250643   0.500649   0.500009   x
            x  C                15         0.416399   0.833294   0.500030   x
            x  C                16         0.249950   0.750124   0.500000   x
            x  C                17         0.666283   0.082970   0.500003   x
            x  C                18         0.500387   0.000069   0.499996   x
            x  C                19         0.667243   0.332879   0.499980   x
            x  C                20         0.499320   0.250041   0.500005   x
            x  C                21         0.671825   0.585975   0.499139   x
            x  C                22         0.500318   0.500001   0.498925   x
            x  C                23         0.667256   0.834409   0.499979   x
            x  C                24         0.499453   0.749427   0.500010   x
            x  C                25         0.916963   0.083032   0.500003   x
            x  C                26         0.749805  -0.000697   0.500007   x
            x  C                27         0.917028   0.333819   0.500003   x
            x  C                28         0.749819   0.250247   0.500007   x
            x  C                29         0.916964   0.583749   0.500025   x
            x  C                30         0.750036   0.500805   0.500002   x
            x  C                31         0.916900   0.833311   0.500026   x
            x  C                32         0.750010   0.749343   0.500002   x
            xxxxxxxxxxxxxxxxxxxxxxxxxxxxxxxxxxxxxxxxxxxxxxxxxxxxxxxxxxxxxxxxx
 
 
------------------------------------------------------------------------ <-- SCF
SCF loop      Energy           Fermi           Energy gain       Timer   <-- SCF
                               energy          per atom          (sec)   <-- SCF
------------------------------------------------------------------------ <-- SCF
Initial  -5.18408307E+003  0.00000000E+000                       483.67  <-- SCF
      1  -5.18561000E+003 -1.88552941E+000   4.62705798E-002     492.94  <-- SCF
      2  -5.18561771E+003 -1.88578237E+000   2.33681487E-004     507.67  <-- SCF
      3  -5.18560685E+003 -1.88951250E+000  -3.29229862E-004     520.16  <-- SCF
      4  -5.18560618E+003 -1.88812316E+000  -2.02917067E-005     531.95  <-- SCF
      5  -5.18560627E+003 -1.88788256E+000   2.65481669E-006     542.77  <-- SCF
      6  -5.18560627E+003 -1.88755420E+000   3.07381504E-008     552.65  <-- SCF
      7  -5.18560627E+003 -1.88743591E+000   1.78801335E-007     562.46  <-- SCF
      8  -5.18560628E+003 -1.88736349E+000   2.48212636E-007     572.24  <-- SCF
------------------------------------------------------------------------ <-- SCF
 
Integrated Spin Density     =   -0.291156E-04 hbar/2                        
Integrated |Spin Density|   =    0.455588E-03 hbar/2                        
 
Final energy, E             =  -5185.532981148     eV
Final free energy (E-TS)    =  -5185.606280400     eV
(energies not corrected for finite basis set)
 
NB est. 0K energy (E-0.5TS)      =  -5185.569630774     eV
 
(SEDC) Total Energy Correction : -0.275211E+01 eV

Dispersion corrected final energy*, Ecor          =  -5188.285092878     eV
Dispersion corrected final free energy* (Ecor-TS) =  -5188.358392131     eV
NB dispersion corrected est. 0K energy* (Ecor-0.5TS) =  -5188.321742504     eV
 
 ************************************** Forces **************************************
 *                                                                                  *
 *                           Cartesian components (eV/A)                            *
 * -------------------------------------------------------------------------------- *
 *                         x                    y                    z              *
 *                                                                                  *
 * H               1      0.14469             -0.02191              1.37111         *
 * C               1     -0.07586             -0.03142              0.04837         *
 * C               2      0.12106             -0.07174              0.01614         *
 * C               3      0.35814              0.19959             -0.01593         *
 * C               4     -0.08718             -0.05434              0.01652         *
 * C               5     -0.09273             -0.04533              0.05276         *
 * C               6      0.00421              0.14243              0.01712         *
 * C               7     -0.01052              0.00130             -0.01731         *
 * C               8      0.09272              0.04972             -0.00119         *
 * C               9      0.07415             -0.03605              0.04862         *
 * C              10      0.00564             -0.10461             -0.00153         *
 * C              11      0.02401              0.19880             -1.05973         *
 * C              12     -0.45027             -0.72048             -0.11403         *
 * C              13      0.21859             -0.12142             -1.16553         *
 * C              14     -0.86574             -0.02062             -0.12340         *
 * C              15     -0.00511              0.10225              0.05306         *
 * C              16     -0.09005              0.05284             -0.00209         *
 * C              17      0.01636              0.00844             -0.00167         *
 * C              18     -0.11578             -0.07865              0.01759         *
 * C              19     -0.35885              0.21499             -0.01674         *
 * C              20      0.46097             -0.74105             -0.11098         *
 * C              21     -0.14052             -0.10295             -0.99833         *
 * C              22     -0.20677              0.03273              2.21855         *
 * C              23      0.01332             -0.42142             -0.01556         *
 * C              24     -0.41780              0.77169             -0.12143         *
 * C              25     -0.01431              0.00838             -0.00019         *
 * C              26      0.00873              0.10790              0.01560         *
 * C              27     -0.00399             -0.01793             -0.00126         *
 * C              28      0.09876             -0.05597              0.01419         *
 * C              29      0.05801             -0.04278              0.04567         *
 * C              30      0.85992             -0.03274             -0.10640         *
 * C              31     -0.01974              0.07673              0.04567         *
 * C              32      0.39591              0.75362             -0.10769         *
 *                                                                                  *
 ************************************************************************************
  
 +------------+-------------+-------------+-----------------+ <-- min LBFGS
 |    Step    |   lambda    |   F.delta'  |    enthalpy     | <-- min LBFGS
 +------------+-------------+-------------+-----------------+ <-- min LBFGS
 |  previous  |    0.000000 |    3.463663 |    -5187.873855 | <-- min LBFGS
 | trial step |    1.000000 |    1.455222 |    -5188.265443 | <-- min LBFGS
 |  line step |    1.724553 |    0.185350 |    -5188.358392 | <-- min LBFGS
 +------------+-------------+-------------+-----------------+ <-- min LBFGS
  
 LBFGS: finished iteration     1 with enthalpy= -5.18835839E+003 eV
  
 +-----------+-----------------+-----------------+------------+-----+ <-- LBFGS
 | Parameter |      value      |    tolerance    |    units   | OK? | <-- LBFGS
 +-----------+-----------------+-----------------+------------+-----+ <-- LBFGS
 |  dE/ion   |   1.468296E-002 |   2.000000E-005 |         eV | No  | <-- LBFGS
 |  |F|max   |   2.228408E+000 |   1.000000E-002 |       eV/A | No  | <-- LBFGS
 |  |dR|max  |   7.696256E-002 |   1.000000E-003 |          A | No  | <-- LBFGS
 +-----------+-----------------+-----------------+------------+-----+ <-- LBFGS
  

================================================================================
 Starting LBFGS iteration          2 ...
================================================================================
  
 +------------+-------------+-------------+-----------------+ <-- min LBFGS
 |    Step    |   lambda    |   F.delta'  |    enthalpy     | <-- min LBFGS
 +------------+-------------+-------------+-----------------+ <-- min LBFGS
 |  previous  |    0.000000 |    1.816700 |    -5188.358392 | <-- min LBFGS
 +------------+-------------+-------------+-----------------+ <-- min LBFGS
  

--------------------------------------------------------------------------------
 LBFGS: starting iteration         2 with trial guess (lambda=  1.000000)
--------------------------------------------------------------------------------
 
                           -------------------------------
                                     Cell Contents
                           -------------------------------
 
            xxxxxxxxxxxxxxxxxxxxxxxxxxxxxxxxxxxxxxxxxxxxxxxxxxxxxxxxxxxxxxxxx
            x  Element         Atom        Fractional coordinates of atoms  x
            x                 Number           u          v          w      x
            x---------------------------------------------------------------x
            x  H                 1         0.494891   0.501005   0.555393   x
            x  C                 1         0.166584   0.082969   0.500054   x
            x  C                 2        -0.000270   0.000030   0.500002   x
            x  C                 3         0.165860   0.332913   0.499967   x
            x  C                 4         0.000405   0.250131   0.500015   x
            x  C                 5         0.166632   0.583662   0.500058   x
            x  C                 6        -0.000293   0.499651   0.500003   x
            x  C                 7         0.166545   0.833425   0.499989   x
            x  C                 8        -0.000011   0.750122   0.500001   x
            x  C                 9         0.416319   0.082953   0.500053   x
            x  C                10         0.249818  -0.000258   0.500000   x
            x  C                11         0.413786   0.327498   0.498440   x
            x  C                12         0.250014   0.249276   0.499955   x
            x  C                13         0.413714   0.586464   0.498252   x
            x  C                14         0.249988   0.500744   0.499955   x
            x  C                15         0.416402   0.833368   0.500058   x
            x  C                16         0.249895   0.750178   0.499999   x
            x  C                17         0.666227   0.082935   0.500002   x
            x  C                18         0.500309   0.000026   0.500003   x
            x  C                19         0.667115   0.333019   0.499968   x
            x  C                20         0.499230   0.249306   0.499956   x
            x  C                21         0.672516   0.586297   0.498548   x
            x  C                22         0.500193   0.500026   0.499718   x
            x  C                23         0.667131   0.834125   0.499968   x
            x  C                24         0.499363   0.750091   0.499957   x
            x  C                25         0.916998   0.082999   0.500004   x
            x  C                26         0.749813  -0.000690   0.500015   x
            x  C                27         0.917059   0.333877   0.500002   x
            x  C                28         0.749821   0.250246   0.500014   x
            x  C                29         0.917016   0.583747   0.500049   x
            x  C                30         0.750758   0.500896   0.499955   x
            x  C                31         0.916945   0.833362   0.500050   x
            x  C                32         0.750721   0.749976   0.499954   x
            xxxxxxxxxxxxxxxxxxxxxxxxxxxxxxxxxxxxxxxxxxxxxxxxxxxxxxxxxxxxxxxxx
 
 
------------------------------------------------------------------------ <-- SCF
SCF loop      Energy           Fermi           Energy gain       Timer   <-- SCF
                               energy          per atom          (sec)   <-- SCF
------------------------------------------------------------------------ <-- SCF
Initial  -5.18470576E+003  0.00000000E+000                       577.62  <-- SCF
      1  -5.18573042E+003 -1.92181434E+000   3.10503618E-002     587.11  <-- SCF
      2  -5.18573512E+003 -1.92201174E+000   1.42539256E-004     602.05  <-- SCF
      3  -5.18573208E+003 -1.92283733E+000  -9.20985830E-005     614.34  <-- SCF
      4  -5.18573220E+003 -1.91958895E+000   3.59649294E-006     626.51  <-- SCF
      5  -5.18573221E+003 -1.92000374E+000   2.76406390E-007     636.43  <-- SCF
      6  -5.18573222E+003 -1.91973295E+000   1.39709872E-007     646.07  <-- SCF
      7  -5.18573223E+003 -1.91966713E+000   4.37440425E-007     655.36  <-- SCF
------------------------------------------------------------------------ <-- SCF
 
Integrated Spin Density     =   -0.561477E-04 hbar/2                        
Integrated |Spin Density|   =    0.625215E-03 hbar/2                        
 
Final energy, E             =  -5185.655269757     eV
Final free energy (E-TS)    =  -5185.732230387     eV
(energies not corrected for finite basis set)
 
NB est. 0K energy (E-0.5TS)      =  -5185.693750072     eV
 
(SEDC) Total Energy Correction : -0.275189E+01 eV

Dispersion corrected final energy*, Ecor          =  -5188.407159157     eV
Dispersion corrected final free energy* (Ecor-TS) =  -5188.484119786     eV
NB dispersion corrected est. 0K energy* (Ecor-0.5TS) =  -5188.445639471     eV
 
 ************************************** Forces **************************************
 *                                                                                  *
 *                           Cartesian components (eV/A)                            *
 * -------------------------------------------------------------------------------- *
 *                         x                    y                    z              *
 *                                                                                  *
 * H               1      0.15813             -0.02385              1.01801         *
 * C               1     -0.09411             -0.20342              0.03490         *
 * C               2      0.10586             -0.06379              0.03136         *
 * C               3      0.14634              0.08664              0.00021         *
 * C               4     -0.02841             -0.02185              0.02279         *
 * C               5     -0.24515              0.02790              0.03940         *
 * C               6     -0.00144              0.12239              0.03300         *
 * C               7     -0.00517             -0.00027             -0.01374         *
 * C               8      0.04611              0.02405              0.00296         *
 * C               9      0.09048             -0.21029              0.03591         *
 * C              10      0.00361             -0.05321              0.00298         *
 * C              11     -0.00452              0.32224             -0.82837         *
 * C              12     -0.23109             -0.37606             -0.18316         *
 * C              13      0.28538             -0.16717             -0.91627         *
 * C              14     -0.44621             -0.01207             -0.20012         *
 * C              15     -0.14616              0.19760              0.03989         *
 * C              16     -0.05157              0.03020              0.00295         *
 * C              17      0.03957              0.02158             -0.00081         *
 * C              18     -0.10154             -0.06328              0.03406         *
 * C              19     -0.15009              0.08958             -0.00111         *
 * C              20      0.25757             -0.38244             -0.18007         *
 * C              21     -0.28038             -0.15931             -0.77790         *
 * C              22     -0.15006              0.02493              2.23733         *
 * C              23      0.00086             -0.17321              0.00043         *
 * C              24     -0.21022              0.39953             -0.19842         *
 * C              25     -0.03777              0.02293              0.00080         *
 * C              26      0.00930              0.03646              0.02148         *
 * C              27     -0.00248             -0.04421             -0.00029         *
 * C              28      0.03974             -0.02141              0.01920         *
 * C              29      0.22026              0.03022              0.03317         *
 * C              30      0.45348             -0.03460             -0.17082         *
 * C              31      0.12379              0.18152              0.03260         *
 * C              32      0.20588              0.39265             -0.17236         *
 *                                                                                  *
 ************************************************************************************
  
 +------------+-------------+-------------+-----------------+ <-- min LBFGS
 |    Step    |   lambda    |   F.delta'  |    enthalpy     | <-- min LBFGS
 +------------+-------------+-------------+-----------------+ <-- min LBFGS
 |  previous  |    0.000000 |    1.816700 |    -5188.358392 | <-- min LBFGS
 | trial step |    1.000000 |    1.354782 |    -5188.484120 | <-- min LBFGS
 +------------+-------------+-------------+-----------------+ <-- min LBFGS
  

--------------------------------------------------------------------------------
 LBFGS: improving iteration         2 with line minimization (lambda=  3.932950)
--------------------------------------------------------------------------------
 
                           -------------------------------
                                     Cell Contents
                           -------------------------------
 
            xxxxxxxxxxxxxxxxxxxxxxxxxxxxxxxxxxxxxxxxxxxxxxxxxxxxxxxxxxxxxxxxx
            x  Element         Atom        Fractional coordinates of atoms  x
            x                 Number           u          v          w      x
            x---------------------------------------------------------------x
            x  H                 1         0.495216   0.500939   0.559126   x
            x  C                 1         0.166421   0.082807   0.500129   x
            x  C                 2        -0.000165  -0.000082   0.500020   x
            x  C                 3         0.166665   0.333287   0.499933   x
            x  C                 4         0.000391   0.250128   0.500039   x
            x  C                 5         0.166414   0.583657   0.500141   x
            x  C                 6        -0.000179   0.499892   0.500022   x
            x  C                 7         0.166524   0.833427   0.499965   x
            x  C                 8         0.000277   0.750275   0.499998   x
            x  C                 9         0.416335   0.082773   0.500129   x
            x  C                10         0.249673  -0.000554   0.499997   x
            x  C                11         0.412878   0.325500   0.496593   x
            x  C                12         0.248146   0.247176   0.499808   x
            x  C                13         0.412765   0.587448   0.496206   x
            x  C                14         0.248067   0.501022   0.499799   x
            x  C                15         0.416412   0.833585   0.500141   x
            x  C                16         0.249733   0.750339   0.499995   x
            x  C                17         0.666063   0.082831   0.500000   x
            x  C                18         0.500081  -0.000100   0.500022   x
            x  C                19         0.666740   0.333428   0.499935   x
            x  C                20         0.498964   0.247151   0.499814   x
            x  C                21         0.674542   0.587240   0.496816   x
            x  C                22         0.499829   0.500099   0.502042   x
            x  C                23         0.666766   0.833293   0.499936   x
            x  C                24         0.499098   0.752041   0.499804   x
            x  C                25         0.917098   0.082902   0.500004   x
            x  C                26         0.749836  -0.000670   0.500037   x
            x  C                27         0.917153   0.334047   0.500001   x
            x  C                28         0.749825   0.250242   0.500035   x
            x  C                29         0.917168   0.583740   0.500120   x
            x  C                30         0.752875   0.501163   0.499816   x
            x  C                31         0.917077   0.833510   0.500121   x
            x  C                32         0.752805   0.751834   0.499815   x
            xxxxxxxxxxxxxxxxxxxxxxxxxxxxxxxxxxxxxxxxxxxxxxxxxxxxxxxxxxxxxxxxx
 
 
------------------------------------------------------------------------ <-- SCF
SCF loop      Energy           Fermi           Energy gain       Timer   <-- SCF
                               energy          per atom          (sec)   <-- SCF
------------------------------------------------------------------------ <-- SCF
Initial  -5.17988217E+003  0.00000000E+000                       660.74  <-- SCF
      1  -5.18581976E+003 -2.02698871E+000   1.79926785E-001     670.14  <-- SCF
      2  -5.18590307E+003 -2.03205433E+000   2.52464709E-003     684.16  <-- SCF
      3  -5.18587874E+003 -2.03175179E+000  -7.37208046E-004     696.26  <-- SCF
      4  -5.18587870E+003 -2.02321371E+000  -1.27254285E-006     708.27  <-- SCF
      5  -5.18587871E+003 -2.02423838E+000   3.97678711E-007     720.59  <-- SCF
      6  -5.18587875E+003 -2.02328646E+000   1.12253193E-006     730.46  <-- SCF
      7  -5.18587886E+003 -2.02338391E+000   3.25275331E-006     739.71  <-- SCF
      8  -5.18587897E+003 -2.02341060E+000   3.47985765E-006     749.31  <-- SCF
      9  -5.18587910E+003 -2.02350404E+000   4.05264301E-006     759.06  <-- SCF
     10  -5.18587919E+003 -2.02371427E+000   2.51644928E-006     769.14  <-- SCF
     11  -5.18587921E+003 -2.02379253E+000   8.17967950E-007     779.20  <-- SCF
     12  -5.18587924E+003 -2.02392081E+000   6.95352173E-007     789.01  <-- SCF
     13  -5.18587927E+003 -2.02416404E+000   1.01735443E-006     798.97  <-- SCF
     14  -5.18587928E+003 -2.02428267E+000   2.16126577E-007     809.07  <-- SCF
     15  -5.18587928E+003 -2.02451823E+000   1.27566249E-007     818.90  <-- SCF
------------------------------------------------------------------------ <-- SCF
 
Integrated Spin Density     =   -0.599689E-04 hbar/2                        
Integrated |Spin Density|   =    0.227581E-03 hbar/2                        
 
Final energy, E             =  -5185.791587684     eV
Final free energy (E-TS)    =  -5185.879282472     eV
(energies not corrected for finite basis set)
 
NB est. 0K energy (E-0.5TS)      =  -5185.835435078     eV
 
(SEDC) Total Energy Correction : -0.275142E+01 eV

Dispersion corrected final energy*, Ecor          =  -5188.543004691     eV
Dispersion corrected final free energy* (Ecor-TS) =  -5188.630699480     eV
NB dispersion corrected est. 0K energy* (Ecor-0.5TS) =  -5188.586852085     eV
 
 ************************************** Forces **************************************
 *                                                                                  *
 *                           Cartesian components (eV/A)                            *
 * -------------------------------------------------------------------------------- *
 *                         x                    y                    z              *
 *                                                                                  *
 * H               1      0.17302             -0.02495              0.07334         *
 * C               1     -0.15058             -0.73741             -0.00026         *
 * C               2      0.06187             -0.04086              0.07930         *
 * C               3     -0.46134             -0.23319              0.05044         *
 * C               4      0.13708              0.06795              0.04159         *
 * C               5     -0.72161              0.25732              0.00412         *
 * C               6     -0.01657              0.06180              0.08299         *
 * C               7      0.01030             -0.00473             -0.00395         *
 * C               8     -0.08723             -0.05118              0.01515         *
 * C               9      0.13837             -0.75177              0.00238         *
 * C              10     -0.00065              0.09469              0.01613         *
 * C              11     -0.08576              0.71274             -0.10576         *
 * C              12      0.39156              0.65240             -0.39114         *
 * C              13      0.51798             -0.32201             -0.13446         *
 * C              14      0.79325             -0.01988             -0.43156         *
 * C              15     -0.58798              0.49579              0.00515         *
 * C              16      0.06003             -0.03540              0.01733         *
 * C              17      0.10607              0.06078              0.00220         *
 * C              18     -0.05714             -0.01827              0.08583         *
 * C              19      0.44417             -0.26857              0.04862         *
 * C              20     -0.31706              0.68957             -0.38571         *
 * C              21     -0.70477             -0.33470             -0.08856         *
 * C              22      0.01186              0.00027              2.04595         *
 * C              23     -0.03962              0.53620              0.05029         *
 * C              24      0.43229             -0.68322             -0.42992         *
 * C              25     -0.10751              0.06599              0.00409         *
 * C              26      0.01230             -0.16329              0.03916         *
 * C              27      0.00047             -0.12040              0.00303         *
 * C              28     -0.12349              0.07420              0.03409         *
 * C              29      0.72241              0.25977              0.00023         *
 * C              30     -0.74473             -0.06801             -0.36246         *
 * C              31      0.56972              0.50658             -0.00149         *
 * C              32     -0.37673             -0.65821             -0.36613         *
 *                                                                                  *
 ************************************************************************************
  
 +------------+-------------+-------------+-----------------+ <-- min LBFGS
 |    Step    |   lambda    |   F.delta'  |    enthalpy     | <-- min LBFGS
 +------------+-------------+-------------+-----------------+ <-- min LBFGS
 |  previous  |    0.000000 |    1.816700 |    -5188.358392 | <-- min LBFGS
 | trial step |    1.000000 |    1.354782 |    -5188.484120 | <-- min LBFGS
 |  line step |    3.932950 |   -0.049535 |    -5188.630699 | <-- min LBFGS
 +------------+-------------+-------------+-----------------+ <-- min LBFGS
  
 LBFGS: finished iteration     2 with enthalpy= -5.18863070E+003 eV
  
 +-----------+-----------------+-----------------+------------+-----+ <-- LBFGS
 | Parameter |      value      |    tolerance    |    units   | OK? | <-- LBFGS
 +-----------+-----------------+-----------------+------------+-----+ <-- LBFGS
 |  dE/ion   |   8.251738E-003 |   2.000000E-005 |         eV | No  | <-- LBFGS
 |  |F|max   |   2.045987E+000 |   1.000000E-002 |       eV/A | No  | <-- LBFGS
 |  |dR|max  |   1.003814E-001 |   1.000000E-003 |          A | No  | <-- LBFGS
 +-----------+-----------------+-----------------+------------+-----+ <-- LBFGS
  

================================================================================
 Starting LBFGS iteration          3 ...
================================================================================
  
 +------------+-------------+-------------+-----------------+ <-- min LBFGS
 |    Step    |   lambda    |   F.delta'  |    enthalpy     | <-- min LBFGS
 +------------+-------------+-------------+-----------------+ <-- min LBFGS
 |  previous  |    0.000000 |    1.572547 |    -5188.630699 | <-- min LBFGS
 +------------+-------------+-------------+-----------------+ <-- min LBFGS
  

--------------------------------------------------------------------------------
 LBFGS: starting iteration         3 with trial guess (lambda=  1.000000)
--------------------------------------------------------------------------------
 
                           -------------------------------
                                     Cell Contents
                           -------------------------------
 
            xxxxxxxxxxxxxxxxxxxxxxxxxxxxxxxxxxxxxxxxxxxxxxxxxxxxxxxxxxxxxxxxx
            x  Element         Atom        Fractional coordinates of atoms  x
            x                 Number           u          v          w      x
            x---------------------------------------------------------------x
            x  H                 1         0.495419   0.500901   0.559881   x
            x  C                 1         0.165906   0.082072   0.500145   x
            x  C                 2        -0.000106  -0.000150   0.500056   x
            x  C                 3         0.166368   0.333157   0.499947   x
            x  C                 4         0.000520   0.250185   0.500061   x
            x  C                 5         0.165890   0.583895   0.500160   x
            x  C                 6        -0.000134   0.500012   0.500060   x
            x  C                 7         0.166525   0.833423   0.499958   x
            x  C                 8         0.000245   0.750259   0.500004   x
            x  C                 9         0.416101   0.082020   0.500145   x
            x  C                10         0.249685  -0.000530   0.500003   x
            x  C                11         0.413007   0.325861   0.496169   x
            x  C                12         0.248354   0.247336   0.499617   x
            x  C                13         0.412892   0.587294   0.495729   x
            x  C                14         0.248276   0.501048   0.499589   x
            x  C                15         0.416171   0.834108   0.500161   x
            x  C                16         0.249730   0.750340   0.500002   x
            x  C                17         0.666154   0.082872   0.500000   x
            x  C                18         0.499967  -0.000150   0.500062   x
            x  C                19         0.666886   0.333272   0.499948   x
            x  C                20         0.498989   0.247333   0.499626   x
            x  C                21         0.674128   0.587070   0.496422   x
            x  C                22         0.499753   0.500117   0.503405   x
            x  C                23         0.666898   0.833602   0.499950   x
            x  C                24         0.499087   0.751832   0.499595   x
            x  C                25         0.917057   0.082949   0.500005   x
            x  C                26         0.749781  -0.000807   0.500058   x
            x  C                27         0.917110   0.333960   0.500002   x
            x  C                28         0.749768   0.250305   0.500053   x
            x  C                29         0.917918   0.583980   0.500135   x
            x  C                30         0.752694   0.501140   0.499639   x
            x  C                31         0.917814   0.834029   0.500136   x
            x  C                32         0.752640   0.751631   0.499635   x
            xxxxxxxxxxxxxxxxxxxxxxxxxxxxxxxxxxxxxxxxxxxxxxxxxxxxxxxxxxxxxxxxx
 
 
------------------------------------------------------------------------ <-- SCF
SCF loop      Energy           Fermi           Energy gain       Timer   <-- SCF
                               energy          per atom          (sec)   <-- SCF
------------------------------------------------------------------------ <-- SCF
Initial  -5.18496384E+003  0.00000000E+000                       824.27  <-- SCF
      1  -5.18597173E+003 -2.08906022E+000   3.05420615E-002     833.86  <-- SCF
      2  -5.18597802E+003 -2.08915337E+000   1.90626465E-004     848.62  <-- SCF
      3  -5.18597302E+003 -2.07019800E+000  -1.51402001E-004     860.55  <-- SCF
      4  -5.18597294E+003 -2.07540121E+000  -2.41690388E-006     872.15  <-- SCF
      5  -5.18597298E+003 -2.07349272E+000   1.07188385E-006     882.33  <-- SCF
      6  -5.18597298E+003 -2.07361090E+000  -3.37396929E-008     892.21  <-- SCF
      7  -5.18597298E+003 -2.07357252E+000   9.86543398E-008     902.16  <-- SCF
      8  -5.18597299E+003 -2.07361826E+000   2.85427751E-007     911.80  <-- SCF
------------------------------------------------------------------------ <-- SCF
 
Integrated Spin Density     =   -0.182711E-04 hbar/2                        
Integrated |Spin Density|   =    0.314057E-03 hbar/2                        
 
Final energy, E             =  -5185.880805514     eV
Final free energy (E-TS)    =  -5185.972990992     eV
(energies not corrected for finite basis set)
 
NB est. 0K energy (E-0.5TS)      =  -5185.926898253     eV
 
(SEDC) Total Energy Correction : -0.275045E+01 eV

Dispersion corrected final energy*, Ecor          =  -5188.631254658     eV
Dispersion corrected final free energy* (Ecor-TS) =  -5188.723440136     eV
NB dispersion corrected est. 0K energy* (Ecor-0.5TS) =  -5188.677347397     eV
 
 ************************************** Forces **************************************
 *                                                                                  *
 *                           Cartesian components (eV/A)                            *
 * -------------------------------------------------------------------------------- *
 *                         x                    y                    z              *
 *                                                                                  *
 * H               1      0.15813             -0.02230              0.27020         *
 * C               1     -0.00817             -0.22801             -0.03214         *
 * C               2     -0.03393              0.02071              0.08121         *
 * C               3     -0.23656             -0.12083              0.02977         *
 * C               4     -0.01286             -0.00959              0.04603         *
 * C               5     -0.19791              0.10895             -0.03040         *
 * C               6     -0.00699             -0.04086              0.08537         *
 * C               7      0.00140             -0.00093              0.01273         *
 * C               8      0.06396              0.04167              0.01776         *
 * C               9      0.00528             -0.21781             -0.02930         *
 * C              10     -0.00488             -0.07776              0.01911         *
 * C              11     -0.04456              0.58744              0.08238         *
 * C              12      0.29542              0.40590             -0.39320         *
 * C              13      0.44587             -0.27156              0.06550         *
 * C              14      0.50875              0.05051             -0.43431         *
 * C              15     -0.19045              0.11098             -0.02920         *
 * C              16     -0.08103              0.04555              0.02095         *
 * C              17      0.06708              0.03826              0.00911         *
 * C              18      0.03343              0.02863              0.08851         *
 * C              19      0.23860             -0.14530              0.03129         *
 * C              20     -0.28502              0.43360             -0.38956         *
 * C              21     -0.56343             -0.28996              0.09371         *
 * C              22      0.02011             -0.00138              1.47988         *
 * C              23     -0.01970              0.27611              0.03054         *
 * C              24      0.21738             -0.47735             -0.43326         *
 * C              25     -0.05929              0.03515              0.01157         *
[...]
  C              15   up:     0.513   1.486   0.000   0.000   1.999     0.001       -0.000
                 15   dn:     0.513   1.486   0.000   0.000   2.000
  C              16   up:     0.513   1.487   0.000   0.000   2.000    -0.001       -0.000
                 16   dn:     0.513   1.488   0.000   0.000   2.001
  C              17   up:     0.515   1.487   0.000   0.000   2.001    -0.002        0.000
                 17   dn:     0.515   1.486   0.000   0.000   2.001
  C              18   up:     0.513   1.487   0.000   0.000   2.000    -0.001       -0.000
                 18   dn:     0.513   1.487   0.000   0.000   2.000
  C              19   up:     0.516   1.489   0.000   0.000   2.005    -0.010        0.000
                 19   dn:     0.516   1.489   0.000   0.000   2.005
  C              20   up:     0.513   1.490   0.000   0.000   2.004    -0.007        0.000
                 20   dn:     0.513   1.490   0.000   0.000   2.004
  C              21   up:     0.519   1.471   0.000   0.000   1.990     0.020       -0.000
                 21   dn:     0.519   1.471   0.000   0.000   1.990
  C              22   up:     0.588   1.559   0.000   0.000   2.147    -0.294       -0.000
                 22   dn:     0.588   1.559   0.000   0.000   2.147
  C              23   up:     0.515   1.490   0.000   0.000   2.005    -0.010       -0.000
                 23   dn:     0.515   1.490   0.000   0.000   2.005
  C              24   up:     0.513   1.491   0.000   0.000   2.004    -0.007       -0.000
                 24   dn:     0.513   1.491   0.000   0.000   2.004
  C              25   up:     0.514   1.487   0.000   0.000   2.001    -0.003        0.000
                 25   dn:     0.514   1.487   0.000   0.000   2.001
  C              26   up:     0.514   1.487   0.000   0.000   2.001    -0.002        0.000
                 26   dn:     0.514   1.487   0.000   0.000   2.001
  C              27   up:     0.514   1.487   0.000   0.000   2.001    -0.002       -0.000
                 27   dn:     0.514   1.487   0.000   0.000   2.001
  C              28   up:     0.514   1.487   0.000   0.000   2.001    -0.002        0.000
                 28   dn:     0.514   1.487   0.000   0.000   2.001
  C              29   up:     0.513   1.486   0.000   0.000   1.999     0.001        0.000
                 29   dn:     0.513   1.486   0.000   0.000   1.999
  C              30   up:     0.513   1.491   0.000   0.000   2.004    -0.007        0.000
                 30   dn:     0.513   1.490   0.000   0.000   2.004
  C              31   up:     0.513   1.487   0.000   0.000   2.000     0.001       -0.000
                 31   dn:     0.513   1.487   0.000   0.000   2.000
  C              32   up:     0.513   1.491   0.000   0.000   2.004    -0.008       -0.000
                 32   dn:     0.513   1.491   0.000   0.000   2.004
==============================================================================================
 
                 Bond                   Population        Spin       Length (A)
================================================================================
               H 1 -- C 22                   0.77        -0.00          1.12734
              C 21 -- C 32                   1.14        -0.00          1.40857
              C 21 -- C 30                   1.14         0.00          1.40876
              C 13 -- C 24                   1.14        -0.00          1.40892
              C 11 -- C 20                   1.14         0.00          1.40908
              C 11 -- C 12                   1.14         0.00          1.40923
              C 13 -- C 14                   1.14        -0.00          1.40936
              C 23 -- C 26                   1.11        -0.00          1.41536
              C 3  -- C 4                    1.11         0.00          1.41744
              C 19 -- C 28                   1.11        -0.00          1.41806
              C 2  -- C 25                   1.08         0.00          1.42097
              C 7  -- C 10                   1.07         0.00          1.42189
              C 6  -- C 27                   1.08        -0.00          1.42205
              C 8  -- C 31                   1.08        -0.00          1.42233
              C 8  -- C 29                   1.08         0.00          1.42313
              C 17 -- C 18                   1.08        -0.00          1.42320
              C 15 -- C 18                   1.07        -0.00          1.42335
              C 2  -- C 31                   1.07         0.00          1.42355
              C 7  -- C 8                    1.07        -0.00          1.42376
              C 1  -- C 10                   1.08         0.00          1.42381
              C 7  -- C 16                   1.07        -0.00          1.42395
              C 9  -- C 10                   1.08        -0.00          1.42428
              C 5  -- C 16                   1.08        -0.00          1.42442
              C 15 -- C 16                   1.08         0.00          1.42446
              C 6  -- C 29                   1.07         0.00          1.42469
              C 1  -- C 2                    1.07         0.00          1.42521
              C 5  -- C 6                    1.07         0.00          1.42563
              C 9  -- C 18                   1.07         0.00          1.42584
              C 31 -- C 32                   1.06        -0.00          1.42605
              C 29 -- C 30                   1.06        -0.00          1.42642
              C 15 -- C 24                   1.06        -0.00          1.42672
              C 1  -- C 12                   1.06        -0.00          1.42702
              C 5  -- C 14                   1.06         0.00          1.42718
              C 9  -- C 20                   1.06         0.00          1.42735
              C 4  -- C 27                   1.05        -0.00          1.42996
              C 4  -- C 25                   1.05         0.00          1.43043
              C 25 -- C 26                   1.05         0.00          1.43075
              C 17 -- C 26                   1.05         0.00          1.43089
              C 27 -- C 28                   1.05         0.00          1.43103
              C 17 -- C 28                   1.05         0.00          1.43178
              C 23 -- C 32                   1.03         0.00          1.43698
              C 23 -- C 24                   1.03        -0.00          1.43754
              C 3  -- C 12                   1.03         0.00          1.43767
              C 3  -- C 14                   1.03        -0.00          1.43803
              C 19 -- C 30                   1.03         0.00          1.43806
              C 19 -- C 20                   1.03         0.00          1.43828
              C 13 -- C 22                   0.82         0.00          1.50313
              C 21 -- C 22                   0.82        -0.00          1.50339
              C 11 -- C 22                   0.82        -0.00          1.50353
               H 1 -- C 13                  -0.17        -0.00          2.08003
               H 1 -- C 21                  -0.17         0.00          2.08039
               H 1 -- C 11                  -0.17         0.00          2.08062
              C 21 -- C 31                  -0.18         0.00          2.44851
              C 21 -- C 29                  -0.18        -0.00          2.44879
              C 13 -- C 15                  -0.18         0.00          2.44914
              C 1  -- C 11                  -0.18         0.00          2.45013
              C 9  -- C 11                  -0.18         0.00          2.45020
              C 5  -- C 13                  -0.18        -0.00          2.45025
              C 30 -- C 32                  -0.17        -0.00          2.45610
              C 12 -- C 20                  -0.17         0.00          2.45664
              C 14 -- C 24                  -0.17        -0.00          2.45690
              C 9  -- C 15                  -0.18        -0.00          2.46164
              C 1  -- C 31                  -0.18         0.00          2.46188
              C 5  -- C 29                  -0.18         0.00          2.46197
              C 8  -- C 32                  -0.18         0.00          2.46289
              C 1  -- C 7                   -0.18        -0.00          2.46327
              C 10 -- C 16                  -0.18        -0.00          2.46350
              C 8  -- C 30                  -0.18        -0.00          2.46360
              C 7  -- C 31                  -0.18        -0.00          2.46370
              C 7  -- C 29                  -0.18         0.00          2.46398
              C 7  -- C 9                   -0.18         0.00          2.46472
              C 8  -- C 10                  -0.18         0.00          2.46507
              C 17 -- C 23                  -0.18        -0.00          2.46515
              C 3  -- C 27                  -0.18        -0.00          2.46542
              C 10 -- C 12                  -0.18        -0.00          2.46546
              C 10 -- C 20                  -0.18         0.00          2.46596
              C 5  -- C 7                   -0.18         0.00          2.46606
              C 8  -- C 16                  -0.18        -0.00          2.46623
              C 14 -- C 16                  -0.18        -0.00          2.46624
              C 16 -- C 24                  -0.18        -0.00          2.46659
              C 25 -- C 31                  -0.18        -0.00          2.46659
              C 1  -- C 25                  -0.18        -0.00          2.46663
              C 29 -- C 31                  -0.17        -0.00          2.46665
              C 3  -- C 25                  -0.18         0.00          2.46672
              C 23 -- C 25                  -0.18         0.00          2.46678
              C 18 -- C 24                  -0.18        -0.00          2.46688
              C 7  -- C 15                  -0.18        -0.00          2.46706
              C 2  -- C 32                  -0.18        -0.00          2.46718
              C 6  -- C 30                  -0.18         0.00          2.46731
              C 5  -- C 15                  -0.18         0.00          2.46747
              C 5  -- C 27                  -0.18         0.00          2.46763
              C 1  -- C 9                   -0.18        -0.00          2.46768
              C 19 -- C 27                  -0.18        -0.00          2.46778
              C 15 -- C 17                  -0.18         0.00          2.46785
              C 2  -- C 26                  -0.18        -0.00          2.46787
              C 2  -- C 8                   -0.18         0.00          2.46830
              C 6  -- C 28                  -0.18         0.00          2.46912
              C 17 -- C 19                  -0.18        -0.00          2.46928
              C 16 -- C 18                  -0.17        -0.00          2.46940
              C 26 -- C 32                  -0.18         0.00          2.46959
              C 2  -- C 12                  -0.18        -0.00          2.46971
              C 6  -- C 14                  -0.18         0.00          2.46980
              C 27 -- C 29                  -0.18         0.00          2.47004
              C 2  -- C 4                   -0.18        -0.00          2.47012
              C 9  -- C 17                  -0.18        -0.00          2.47022
              C 18 -- C 20                  -0.18         0.00          2.47024
              C 2  -- C 10                  -0.17        -0.00          2.47033
              C 24 -- C 26                  -0.18        -0.00          2.47115
              C 18 -- C 28                  -0.18         0.00          2.47123
              C 18 -- C 26                  -0.18        -0.00          2.47129
              C 4  -- C 6                   -0.17         0.00          2.47142
              C 6  -- C 8                   -0.17        -0.00          2.47144
              C 6  -- C 16                  -0.17        -0.00          2.47153
              C 10 -- C 18                  -0.17        -0.00          2.47179
              C 4  -- C 12                  -0.18         0.00          2.47237
              C 4  -- C 14                  -0.17        -0.00          2.47350
              C 20 -- C 28                  -0.18         0.00          2.47356
              C 28 -- C 30                  -0.17         0.00          2.47393
              C 21 -- C 23                  -0.18         0.00          2.47420
              C 13 -- C 23                  -0.18         0.00          2.47469
              C 3  -- C 11                  -0.18        -0.00          2.47529
              C 19 -- C 21                  -0.18        -0.00          2.47543
              C 11 -- C 19                  -0.18        -0.00          2.47556
              C 3  -- C 13                  -0.18         0.00          2.47584
              C 23 -- C 31                  -0.17        -0.00          2.47587
              C 17 -- C 25                  -0.18        -0.00          2.47601
              C 1  -- C 3                   -0.17         0.00          2.47715
              C 19 -- C 29                  -0.17         0.00          2.47720
              C 25 -- C 27                  -0.18         0.00          2.47727
              C 15 -- C 23                  -0.17         0.00          2.47748
              C 17 -- C 27                  -0.18         0.00          2.47761
              C 3  -- C 5                   -0.17        -0.00          2.47764
              C 4  -- C 28                  -0.17         0.00          2.47789
              C 9  -- C 19                  -0.17         0.00          2.47819
              C 4  -- C 26                  -0.17        -0.00          2.47892
              C 26 -- C 28                  -0.17         0.00          2.48084
              C 24 -- C 32                  -0.17         0.00          2.48877
              C 12 -- C 14                  -0.17        -0.00          2.48930
              C 20 -- C 30                  -0.17         0.00          2.48986
              C 22 -- C 32                  -0.17        -0.00          2.51103
              C 22 -- C 24                  -0.17        -0.00          2.51112
              C 22 -- C 30                  -0.17         0.00          2.51131
              C 14 -- C 22                  -0.17         0.00          2.51157
              C 20 -- C 22                  -0.17         0.00          2.51176
              C 12 -- C 22                  -0.17        -0.00          2.51200
              C 13 -- C 21                  -0.14        -0.00          2.53071
              C 11 -- C 13                  -0.14         0.00          2.53077
              C 11 -- C 21                  -0.14         0.00          2.53121
              C 8  -- C 21                  -0.11         0.00          2.82397
              C 10 -- C 11                  -0.11         0.00          2.82716
              C 13 -- C 16                  -0.11         0.00          2.82765
              C 9  -- C 16                  -0.10        -0.00          2.84392
              C 29 -- C 32                  -0.11         0.00          2.84469
              C 30 -- C 31                  -0.11         0.00          2.84476
              C 1  -- C 8                   -0.10        -0.00          2.84478
              C 16 -- C 29                  -0.10         0.00          2.84481
              C 10 -- C 31                  -0.10        -0.00          2.84515
              C 14 -- C 15                  -0.11         0.00          2.84528
              C 10 -- C 15                  -0.10        -0.00          2.84575
              C 9  -- C 12                  -0.11         0.00          2.84585
              C 1  -- C 20                  -0.11         0.00          2.84592
              C 5  -- C 24                  -0.10        -0.00          2.84630
              C 5  -- C 8                   -0.10        -0.00          2.84691
              C 6  -- C 19                  -0.10         0.00          2.84952
              C 2  -- C 23                  -0.10         0.00          2.84995
              C 18 -- C 23                  -0.10        -0.00          2.85052
              C 2  -- C 7                   -0.10        -0.00          2.85053
              C 26 -- C 31                  -0.10        -0.00          2.85059
              C 17 -- C 24                  -0.10        -0.00          2.85099
              C 14 -- C 27                  -0.10         0.00          2.85179
              C 25 -- C 32                  -0.10        -0.00          2.85182
              C 12 -- C 25                  -0.10        -0.00          2.85198
              C 3  -- C 6                   -0.10         0.00          2.85214
              C 2  -- C 3                   -0.10         0.00          2.85227
              C 18 -- C 19                  -0.10        -0.00          2.85307
              C 1  -- C 4                   -0.10         0.00          2.85320
              C 6  -- C 7                   -0.10         0.00          2.85374
              C 7  -- C 18                  -0.10        -0.00          2.85400
              C 15 -- C 26                  -0.10        -0.00          2.85428
              C 27 -- C 30                  -0.10         0.00          2.85431
              C 9  -- C 28                  -0.10         0.00          2.85489
              C 4  -- C 5                   -0.10         0.00          2.85509
              C 28 -- C 29                  -0.10         0.00          2.85518
              C 17 -- C 20                  -0.10         0.00          2.85527
              C 4  -- C 17                  -0.09        -0.00          2.85974
              C 25 -- C 28                  -0.09         0.00          2.86157
              C 26 -- C 27                  -0.09         0.00          2.86316
              C 13 -- C 32                  -0.08         0.00          2.87798
              C 21 -- C 24                  -0.08         0.00          2.87803
              C 11 -- C 14                  -0.08         0.00          2.87832
              C 11 -- C 30                  -0.08         0.00          2.87864
              C 12 -- C 13                  -0.08         0.00          2.87875
              C 20 -- C 21                  -0.08         0.00          2.87894
              C 22 -- C 23                  -0.08         0.00          2.88755
              C 19 -- C 22                  -0.08         0.00          2.88869
              C 3  -- C 22                  -0.08        -0.00          2.88896
               H 1 -- C 32                  -0.02        -0.00          2.92625
               H 1 -- C 24                  -0.02         0.00          2.92628
               H 1 -- C 14                  -0.02        -0.00          2.92681
               H 1 -- C 30                  -0.02        -0.00          2.92684
               H 1 -- C 20                  -0.02        -0.00          2.92738
               H 1 -- C 12                  -0.02        -0.00          2.92740
================================================================================
 

Writing analysis data to 4x4.castep_bin

Writing model to 4x4.check
 
 A BibTeX formatted list of references used in this run has been written to 
 4x4.bib
 
Initialisation time =      3.02 s
Calculation time    =   4290.30 s
Finalisation time   =      3.85 s
Total time          =   4297.16 s
Peak Memory Use     = 1057976 kB
  
Overall parallel efficiency rating: Mediocre (51%)                              
  
Data was distributed by:-
G-vector (16-way); efficiency rating: Mediocre (53%)                            
k-point (8-way); efficiency rating: Excellent (92%)                             
