 +-------------------------------------------------+
 |                                                 |
 |      CCC   AA    SSS  TTTTT  EEEEE  PPPP        |
 |     C     A  A  S       T    E      P   P       |
 |     C     AAAA   SS     T    EEE    PPPP        |
 |     C     A  A     S    T    E      P           |
 |      CCC  A  A  SSS     T    EEEEE  P           |
 |                                                 |
 +-------------------------------------------------+
 |                                                 |
 | Welcome to Academic Release CASTEP version 21.11|          
 | Ab Initio Total Energy Program                  |
 |                                                 |
 | Authors:                                        |
 | M. Segall, M. Probert, C. Pickard, P. Hasnip,   |
 | S. Clark, K. Refson, J. R. Yates, M. Payne      |
 |                                                 |
 | Contributors:                                   |
 | P. Lindan, P. Haynes, J. White, V. Milman,      |
 | N. Govind, M. Gibson, P. Tulip, V. Cocula,      |
 | B. Montanari, D. Quigley, M. Glover,            |
 | L. Bernasconi, A. Perlov, M. Plummer,           |
 | E. McNellis, J. Meyer, J. Gale, D. Jochym       |
 | J. Aarons, B. Walker, R. Gillen, D. Jones       |
 | T. Green, I. J. Bush, C. J. Armstrong,          |
 | E. J. Higgins, E. L. Brown, M. S. McFly,        |
 | J. Wilkins, B-C. Shih, P. J. P. Byrne,          |
 | R. J. Maurer, J. C. Womack, J. Dziedzic,        |
 | A. Bartok-Partay, L. LeBlanc                    |
 |                                                 |
 | Copyright (c) 2000 - 2021                       |
 |                                                 |
 |     Distributed under license from Cambridge    |
 |     Enterprise for academic use only.           |
 |                                                 |
 | Please cite                                     |
 |                                                 |
 |     "First principles methods using CASTEP"     |
 |                                                 |
 |         Zeitschrift fuer Kristallographie       |
 |           220(5-6) pp. 567-570 (2005)           |
 |                                                 |
 | S. J. Clark, M. D. Segall, C. J. Pickard,       |
 | P. J. Hasnip, M. J. Probert, K. Refson,         |
 | M. C. Payne                                     |
 |                                                 |
 |       in all publications arising from          |
 |              your use of CASTEP                 |
 |                                                 |
 +-------------------------------------------------+
 |                                                 |
 |              http://www.castep.org              |
 |                                                 |
 +-------------------------------------------------+
 
 
 
 Compiled for linux_x86_64_cray-XT on Tue, 01 Mar 2022 09:19:15 +0000
 from code version 7d4405a8a+  HEAD  Sat Nov 27 13:38:33 2021 +0000
 Compiler: Cray Fortran 12.0.3; Optimisation: fast
 MATHLIBS: LibSci (LAPACK version 3.6.1)
 FFT Lib : fftw3 version commercial-fftw-3.3.8-sse2-avx-avx2-avx2_128
 Fundamental constants values: CODATA 2014
 
 Run started: Sun, 30 Oct 2022 11:03:11 +0000
 
 Atomic calculation performed for H: 1s1
 
 Converged in 41 iterations to an ae energy of -12.488 eV
 
   ============================================================                
   | Pseudopotential Report - Date of generation 30-10-2022   |                
   ------------------------------------------------------------                
   | Element: H Ionic charge:  1.00 Level of theory: PBE      |                
   | Atomic Solver: Koelling-Harmon                           |                
   |                                                          |                
   |               Reference Electronic Structure             |                
   |         Orbital         Occupation         Energy        |                
   |            1s              1.000           -0.239        |                
   |                                                          |                
   |                 Pseudopotential Definition               |                
   |        Beta     l      e      Rc     scheme   norm       |                
   |          1      0   -0.239   0.599     qc      0         |                
   |          2      0    0.250   0.599     qc      0         |                
   |         loc     1    0.000   0.599     pn      0         |                
   |                                                          |                
   | Augmentation charge Rinner = 0.421                       |                
   | No partial core correction                               |                
   ------------------------------------------------------------                
   | "1|0.6|13|15|17|10(qc=8)"                                |                
   ------------------------------------------------------------                
   |      Author: Chris J. Pickard, Cambridge University      |                
   ============================================================                
 
 Atomic calculation performed for C: 1s2 2s2 2p2
 
 Converged in 54 iterations to an ae energy of -1027.632 eV
 
   ============================================================                
   | Pseudopotential Report - Date of generation 30-10-2022   |                
   ------------------------------------------------------------                
   | Element: C Ionic charge:  4.00 Level of theory: PBE      |                
   | Atomic Solver: Koelling-Harmon                           |                
   |                                                          |                
   |               Reference Electronic Structure             |                
   |         Orbital         Occupation         Energy        |                
   |            2s              2.000           -0.505        |                
   |            2p              2.000           -0.194        |                
   |                                                          |                
   |                 Pseudopotential Definition               |                
   |        Beta     l      e      Rc     scheme   norm       |                
   |          1      0   -0.505   1.201     qc      1         |                
   |         loc     1   -0.194   1.201     qc      1         |                
   |                                                          |                
   | No charge augmentation                                   |                
   | Partial core correction Rc = 0.839                       |                
   ------------------------------------------------------------                
   | "1|1.2|17|20|23|20N:21L(qc=8)"                           |                
   ------------------------------------------------------------                
   |      Author: Chris J. Pickard, Cambridge University      |                
   ============================================================                
 
 Pseudo atomic calculation performed for H 1s1
 
 Converged in 13 iterations to a total energy of -12.4856 eV
 
 Pseudo atomic calculation performed for C 2s2 2p2
 
 Converged in 18 iterations to a total energy of -152.4291 eV
 Calculation parallelised over 128 processes.
 Data is distributed by G-vector(16-way) and k-point(8-way)

 ************************************ Title ************************************
 

 ***************************** General Parameters ******************************
  
 output verbosity                               : normal  (1)
 write checkpoint data to                       : 4x4.check
 type of calculation                            : geometry optimization
 stress calculation                             : off
 density difference calculation                 : off
 electron localisation func (ELF) calculation   : off
 Hirshfeld analysis                             : off
 polarisation (Berry phase) analysis            : off
 molecular orbital projected DOS                : off
 deltaSCF calculation                           : off
 unlimited duration calculation
 timing information                             : on
 memory usage estimate                          : on
 write extra output files                       : on
 write final potential to formatted file        : off
 write final density to formatted file          : off
 write structure in CELL formatted file         : on
 write BibTeX reference list                    : on
 write OTFG pseudopotential files               : on
 write electrostatic potential file             : on
 write bands file                               : on
 checkpoint writing                             : both castep_bin and check files
  
 output         length unit                     : A
 output           mass unit                     : amu
 output           time unit                     : ps
 output         charge unit                     : e
 output           spin unit                     : hbar/2
 output         energy unit                     : eV
 output          force unit                     : eV/A
 output       velocity unit                     : A/ps
 output       pressure unit                     : GPa
 output     inv_length unit                     : 1/A
 output      frequency unit                     : cm-1
 output force constant unit                     : eV/A**2
 output         volume unit                     : A**3
 output   IR intensity unit                     : (D/A)**2/amu
 output         dipole unit                     : D
 output         efield unit                     : eV/A/e
 output        entropy unit                     : J/mol/K
 output    efield chi2 unit                     : pm/V
  
 wavefunctions paging                           : none
 random number generator seed                   : randomised (110311605)
 data distribution                              : optimal for this architecture
 optimization strategy                          : maximize speed(+++)

 *********************** Exchange-Correlation Parameters ***********************
  
 using functional                               : Perdew Burke Ernzerhof
 relativistic treatment                         : Koelling-Harmon
 DFT+D: Semi-empirical dispersion correction    : on
 SEDC with                                      : MBD@rsSCS method

 ************************* Pseudopotential Parameters **************************
  
 pseudopotential representation                 : reciprocal space
 <beta|phi> representation                      : reciprocal space
 spin-orbit coupling                            : off

 **************************** Basis Set Parameters *****************************
  
 plane wave basis set cut-off                   :   800.0000   eV
 size of standard grid                          :     1.7500
 size of   fine   gmax                          :    25.3584   1/A
 finite basis set correction                    : none

 **************************** Electronic Parameters ****************************
  
 number of  electrons                           :  130.0    
 net charge of system                           :  0.000    
 treating system as non-spin-polarized
 number of bands                                :         98

 ********************* Electronic Minimization Parameters **********************
  
 Method: Treating system as metallic with density mixing treatment of electrons,
         and number of  SD  steps               :          1
         and number of  CG  steps               :          4
  
 total energy / atom convergence tol.           : 0.1000E-05   eV
 eigen-energy convergence tolerance             : 0.3469E-06   eV
 max force / atom convergence tol.              : ignored
 convergence tolerance window                   :          3   cycles
 max. number of SCF cycles                      :        100
 number of fixed-spin iterations                :         10
 smearing scheme                                : Gaussian
 smearing width                                 : 0.2000       eV
 Fermi energy convergence tolerance             : 0.2721E-13   eV
 periodic dipole correction                     : NONE

 ************************** Density Mixing Parameters **************************
  
 density-mixing scheme                          : Pulay
 max. length of mixing history                  :         20
 charge density mixing amplitude                : 0.8000    
 cut-off energy for mixing                      :  800.0       eV

 *********************** Population Analysis Parameters ************************
  
 Population analysis with cutoff                :  3.000       A
 Population analysis output                     : summary and pdos components

 ********************** Geometry Optimization Parameters ***********************
  
 optimization method                            : LBFGS
 max. no. of LBFGS updates                      : unbounded
 variable cell method                           : fixed basis quality
 max. number of steps                           :        100
 estimated bulk modulus                         :  500.0       GPa
 estimated <frequency>                          :  1668.       cm-1
 geom line minimiser                            : on
 with line minimiser tolerance                  :     0.4000
 total energy convergence tolerance             : 0.2000E-04   eV/atom
        max ionic |force| tolerance             : 0.1000E-01   eV/A
 max ionic |displacement| tolerance             : 0.1000E-02   A
   max |stress component| tolerance             : 0.1000       GPa
 convergence tolerance window                   :          2   steps
 backup results every                           :          5   steps
 write geom trajectory file                     : on

 *******************************************************************************
  
 
                           -------------------------------
                                      Unit Cell
                           -------------------------------
        Real Lattice(A)                      Reciprocal Lattice(1/A)
     9.8800000     0.0000000     0.0000000        0.635949930   0.367165863   0.000000000
    -4.9400000     8.5563310     0.0000000        0.000000000   0.734331726   0.000000000
     0.0000000     0.0000000    20.0339000        0.000000000   0.000000000   0.313627666
 
                       Lattice parameters(A)       Cell Angles
                    a =      9.880000          alpha =   90.000000
                    b =      9.880000          beta  =   90.000000
                    c =     20.033900          gamma =  120.000000
 
                       Current cell volume =          1693.596795       A**3
                                   density =             0.228129   AMU/A**3
                                           =             0.378817     g/cm^3
 
                           -------------------------------
                                     Cell Contents
                           -------------------------------
                         Total number of ions in cell =   34
                      Total number of species in cell =    2
                        Max number of any one species =   32
 
            xxxxxxxxxxxxxxxxxxxxxxxxxxxxxxxxxxxxxxxxxxxxxxxxxxxxxxxxxxxx
            x  Element    Atom        Fractional coordinates of atoms  x
            x            Number           u          v          w      x
            x----------------------------------------------------------x
            x  H            1         0.501879   0.251955   0.550331   x 
            x  H            2         0.669467   0.590347   0.548930   x 
            x  C            1         0.166476   0.083155   0.500002   x 
            x  C            2        -0.000100  -0.000140   0.500002   x 
            x  C            3         0.166447   0.333239   0.500002   x 
            x  C            4        -0.000173   0.249815   0.500002   x 
            x  C            5         0.166520   0.583404   0.500002   x 
            x  C            6        -0.000108   0.499946   0.500002   x 
            x  C            7         0.166543   0.833430   0.500002   x 
            x  C            8        -0.000049   0.750064   0.500002   x 
            x  C            9         0.416557   0.083155   0.500002   x 
            x  C           10         0.249870  -0.000199   0.500002   x 
            x  C           11         0.416592   0.333285   0.500002   x 
            x  C           12         0.249853   0.249827   0.500002   x 
            x  C           13         0.416666   0.583474   0.500002   x 
            x  C           14         0.249889   0.499981   0.500002   x 
            x  C           15         0.416657   0.833476   0.500002   x 
            x  C           16         0.249960   0.750123   0.500002   x 
            x  C           17         0.666714   0.083225   0.500002   x 
            x  C           18         0.500005  -0.000152   0.500002   x 
            x  C           19         0.666769   0.333356   0.500002   x 
            x  C           20         0.500012   0.249862   0.500002   x 
            x  C           21         0.666815   0.583509   0.500002   x 
            x  C           22         0.500066   0.500051   0.500002   x 
            x  C           23         0.666788   0.833535   0.500002   x 
            x  C           24         0.500117   0.750193   0.500002   x 
            x  C           25         0.916717   0.083272   0.500002   x 
            x  C           26         0.750125  -0.000093   0.500002   x 
            x  C           27         0.916770   0.333379   0.500002   x 
            x  C           28         0.750152   0.249920   0.500002   x 
            x  C           29         0.916836   0.583509   0.500002   x 
            x  C           30         0.750215   0.500086   0.500002   x 
            x  C           31         0.916769   0.833476   0.500002   x 
            x  C           32         0.750202   0.750181   0.500002   x 
            xxxxxxxxxxxxxxxxxxxxxxxxxxxxxxxxxxxxxxxxxxxxxxxxxxxxxxxxxxxx
 
 
                         No user defined ionic velocities
 
                           -------------------------------
                                   Details of Species
                           -------------------------------
 
                               Mass of species in AMU
                                    H    1.0079400
                                    C   12.0107000
 
                          Electric Quadrupole Moment (Barn)
                                    H    0.0028600 Isotope  2
                                    C    0.0332700 Isotope 11
 
                          Files used for pseudopotentials:
                                    H 1|0.6|13|15|17|10(qc=8)
                                    C 1|1.2|17|20|23|20N:21L(qc=8)
 
                           -------------------------------
                              k-Points For BZ Sampling
                           -------------------------------
                       MP grid size for SCF calculation is  4  4  1
                            with an offset of   0.000  0.000  0.000
                       Number of kpoints used =   8
 
                           -------------------------------
                               Symmetry and Constraints
                           -------------------------------
 
                      Maximum deviation from symmetry =  0.00000         ANG
 
                      Number of symmetry operations   = 1
         There are no ionic constraints specified or generated for this cell
                      Point group of crystal =     1: C1, 1, 1
                      Space group of crystal =     1: P1, P 1
 
             Set iprint > 1 for details on symmetry rotations/translations
 
                         Centre of mass is NOT constrained
 
                         Number of cell constraints= 6
                         Cell constraints are:  0 0 0 0 0 0
 
                         External pressure/stress (GPa)
                          0.00000   0.00000   0.00000
                                    0.00000   0.00000
                                              0.00000
 
                                --------------------
                                  DFT-D parameters
                                --------------------
 
                          Dispersion-correction scheme : MBD*      
                        Parameter sR :   0.830000 (default)
 
        xxxxxxxxxxxxxxxxxxxxxxxxxxxxxxxxxxxxxxxxxxxxxxxxxxxxxxxxxxxxxxxxxxxx
        x              Atomic DFT-D parameters                             x
        x  Species      C6            alpha        R0                      x
        x               eV A^6        A^3          A                       x
        x------------------------------------------------------------------x
        x  H             3.8839       0.6668       1.6404   (default)      x
        x  C            27.8448       1.7782       1.8997   (default)      x
        xxxxxxxxxxxxxxxxxxxxxxxxxxxxxxxxxxxxxxxxxxxxxxxxxxxxxxxxxxxxxxxxxxxx
 
  
+---------------- MEMORY AND SCRATCH DISK ESTIMATES PER PROCESS --------------+
|                                                     Memory          Disk    |
| Baseline code, static data and system overhead      770.0 MB         0.0 MB |
| BLAS internal memory storage                          0.0 MB         0.0 MB |
| Model and support data                               37.8 MB         0.0 MB |
| Electronic energy minimisation requirements          62.0 MB         0.0 MB |
| Force calculation requirements                       12.6 MB         0.0 MB |
|                                               ----------------------------- |
| Approx. total storage required per process          869.7 MB         0.0 MB |
|                                                                             |
| Requirements will fluctuate during execution and may exceed these estimates |
+-----------------------------------------------------------------------------+
Calculating approximate eigenstates for fixed initial Hamiltonian
Cut-off for approx. calculation is  119.774 eV
Improving approx. states at cut-off of  462.594 eV
Resetting cut-off to  800.000 eV
Calculating total energy with cut-off of  800.000 eV.
------------------------------------------------------------------------ <-- SCF
SCF loop      Energy           Fermi           Energy gain       Timer   <-- SCF
                               energy          per atom          (sec)   <-- SCF
------------------------------------------------------------------------ <-- SCF
Initial  -4.73448233E+003  0.00000000E+000                        10.35  <-- SCF
      1  -5.21363153E+003 -5.29498965E+000   1.40926235E+001      16.04  <-- SCF
      2  -5.21385661E+003 -5.29627473E+000   6.62016485E-003      22.01  <-- SCF
      3  -5.19993121E+003 -3.92033357E+000  -4.09570756E-001      28.29  <-- SCF
      4  -5.19910465E+003 -3.41406862E+000  -2.43105071E-002      34.65  <-- SCF
      5  -5.19886491E+003 -3.13611724E+000  -7.05118719E-003      41.23  <-- SCF
      6  -5.19874215E+003 -2.90139271E+000  -3.61057328E-003      47.58  <-- SCF
      7  -5.19867351E+003 -2.66185866E+000  -2.01884217E-003      53.74  <-- SCF
      8  -5.19861298E+003 -2.51078293E+000  -1.78029140E-003      59.97  <-- SCF
      9  -5.19860811E+003 -2.36256436E+000  -1.43315640E-004      66.25  <-- SCF
     10  -5.19862278E+003 -2.25932713E+000   4.31629622E-004      72.26  <-- SCF
     11  -5.19863514E+003 -2.18203131E+000   3.63360045E-004      78.12  <-- SCF
     12  -5.19863687E+003 -2.09414208E+000   5.09446789E-005      83.77  <-- SCF
     13  -5.19863411E+003 -2.02041661E+000  -8.11002958E-005      89.24  <-- SCF
     14  -5.19863081E+003 -1.93828288E+000  -9.69672593E-005      94.57  <-- SCF
     15  -5.19863384E+003 -1.87758574E+000   8.90758204E-005      99.80  <-- SCF
     16  -5.19864055E+003 -1.84429384E+000   1.97152723E-004     104.79  <-- SCF
     17  -5.19864548E+003 -1.83799371E+000   1.45173032E-004     109.92  <-- SCF
     18  -5.19864683E+003 -1.83721309E+000   3.97325709E-005     114.79  <-- SCF
     19  -5.19864713E+003 -1.83700196E+000   8.82982712E-006     119.58  <-- SCF
     20  -5.19864718E+003 -1.83699295E+000   1.44655097E-006     124.54  <-- SCF
     21  -5.19864722E+003 -1.83676073E+000   1.22390584E-006     129.50  <-- SCF
     22  -5.19864726E+003 -1.83645350E+000   1.08450010E-006     134.37  <-- SCF
     23  -5.19864728E+003 -1.83633410E+000   6.05631595E-007     139.18  <-- SCF
     24  -5.19864730E+003 -1.83625585E+000   6.55239482E-007     144.12  <-- SCF
     25  -5.19864733E+003 -1.83613288E+000   9.18797453E-007     149.08  <-- SCF
     26  -5.19864735E+003 -1.83606217E+000   2.98716172E-007     154.10  <-- SCF
     27  -5.19864735E+003 -1.83605262E+000   1.12385241E-007     158.84  <-- SCF
------------------------------------------------------------------------ <-- SCF
 
Final energy, E             =  -5198.629529391     eV
Final free energy (E-TS)    =  -5198.647348975     eV
(energies not corrected for finite basis set)
 
NB est. 0K energy (E-0.5TS)      =  -5198.638439183     eV
 
 WARNING: Your unit cell might be too small to get accurate results for van der Waals
(SEDC) Total Energy Correction : -0.281198E+01 eV

Dispersion corrected final energy*, Ecor          =  -5201.441506973     eV
Dispersion corrected final free energy* (Ecor-TS) =  -5201.459326557     eV
NB dispersion corrected est. 0K energy* (Ecor-0.5TS) =  -5201.450416765     eV

Writing analysis data to 4x4.castep_bin

Writing model to 4x4.check
 
+---------------- MEMORY AND SCRATCH DISK ESTIMATES PER PROCESS --------------+
|                                                     Memory          Disk    |
| Model and support data                               45.7 MB         0.0 MB |
| Electronic energy minimisation requirements          62.0 MB         0.0 MB |
| Geometry minimisation requirements                   71.3 MB         0.0 MB |
|                                               ----------------------------- |
| Approx. total storage required per process          179.0 MB         0.0 MB |
|                                                                             |
| Requirements will fluctuate during execution and may exceed these estimates |
+-----------------------------------------------------------------------------+
 
 
 ************************************** Forces **************************************
 *                                                                                  *
 *                           Cartesian components (eV/A)                            *
 * -------------------------------------------------------------------------------- *
 *                         x                    y                    z              *
 *                                                                                  *
 * H               1     -0.00611             -0.24137              5.17405         *
 * H               2      0.00259              0.24052              6.62512         *
 * C               1     -0.47815             -0.15619             -0.00975         *
 * C               2      0.15449              0.33230              0.05279         *
 * C               3      0.05622              0.05917              0.02135         *
 * C               4     -0.03377             -0.16974             -0.00672         *
 * C               5      0.02468              0.16866             -0.00517         *
 * C               6     -0.05129             -0.04616              0.02068         *
 * C               7     -0.16512             -0.33805              0.04220         *
 * C               8      0.45986              0.14861             -0.01332         *
 * C               9      0.02047             -3.36897             -1.52300         *
 * C              10      0.74582              0.27639             -0.03244         *
 * C              11     -2.77854              2.79954             -1.68144         *
 * C              12      0.10573              0.30052              0.05336         *
 * C              13      0.17346             -0.31094              0.05608         *
 * C              14     -0.01978             -0.05024              0.02144         *
 * C              15      0.20807             -0.32715              0.04195         *
 * C              16     -0.03761             -0.14191             -0.00501         *
 * C              17      0.53419             -0.16194             -0.00949         *
 * C              18     -0.78798              0.26823             -0.03208         *
 * C              19      2.88320              2.81856             -1.73267         *
 * C              20     -0.04594             -0.37409             -0.36438         *
 * C              21      0.06153              0.13074             -1.76512         *
 * C              22     -2.82189             -2.79670             -1.64398         *
 * C              23      0.77460             -0.25220             -0.01920         *
 * C              24     -0.52470              0.15316             -0.01458         *
 * C              25      0.03757              0.14341             -0.00696         *
 * C              26     -0.20409              0.32929              0.05248         *
 * C              27      0.01271              0.05907              0.02255         *
 * C              28     -0.17509              0.30026              0.05200         *
 * C              29     -0.11859             -0.30797              0.05817         *
 * C              30      2.73505             -2.77015             -1.59613         *
 * C              31     -0.71851             -0.25505             -0.01910         *
 * C              32     -0.02305              3.54040             -1.81368         *
 *                                                                                  *
 ************************************************************************************
 LBFGS: finished iteration     0 with enthalpy= -5.20145933E+003 eV
  
 +-----------+-----------------+-----------------+------------+-----+ <-- LBFGS
 | Parameter |      value      |    tolerance    |    units   | OK? | <-- LBFGS
 +-----------+-----------------+-----------------+------------+-----+ <-- LBFGS
 |  dE/ion   |   0.000000E+000 |   2.000000E-005 |         eV | No  | <-- LBFGS
 |  |F|max   |   6.629488E+000 |   1.000000E-002 |       eV/A | No  | <-- LBFGS
 |  |dR|max  |   0.000000E+000 |   1.000000E-003 |          A | No  | <-- LBFGS
 +-----------+-----------------+-----------------+------------+-----+ <-- LBFGS
  

================================================================================
 Starting LBFGS iteration          1 ...
================================================================================
  
 +------------+-------------+-------------+-----------------+ <-- min LBFGS
 |    Step    |   lambda    |   F.delta'  |    enthalpy     | <-- min LBFGS
 +------------+-------------+-------------+-----------------+ <-- min LBFGS
 |  previous  |    0.000000 |    5.368343 |    -5201.459327 | <-- min LBFGS
 +------------+-------------+-------------+-----------------+ <-- min LBFGS
  

--------------------------------------------------------------------------------
 LBFGS: starting iteration         1 with trial guess (lambda=  1.000000)
--------------------------------------------------------------------------------
 
                           -------------------------------
                                     Cell Contents
                           -------------------------------
 
            xxxxxxxxxxxxxxxxxxxxxxxxxxxxxxxxxxxxxxxxxxxxxxxxxxxxxxxxxxxxxxxxx
            x  Element         Atom        Fractional coordinates of atoms  x
            x                 Number           u          v          w      x
            x---------------------------------------------------------------x
            x  H                 1         0.501752   0.251712   0.552553   x
            x  H                 2         0.669590   0.590589   0.551775   x
            x  C                 1         0.165981   0.082998   0.499998   x
            x  C                 2         0.000201   0.000194   0.500025   x
            x  C                 3         0.166526   0.333298   0.500012   x
            x  C                 4        -0.000288   0.249644   0.500000   x
            x  C                 5         0.166626   0.583574   0.500000   x
            x  C                 6        -0.000176   0.499899   0.500011   x
            x  C                 7         0.166229   0.833090   0.500021   x
            x  C                 8         0.000426   0.750214   0.499997   x
            x  C                 9         0.414881   0.079767   0.499348   x
            x  C                10         0.250659   0.000079   0.499989   x
            x  C                11         0.415580   0.336100   0.499280   x
            x  C                12         0.250096   0.250129   0.500025   x
            x  C                13         0.416661   0.583162   0.500027   x
            x  C                14         0.249847   0.499930   0.500012   x
            x  C                15         0.416674   0.833147   0.500021   x
            x  C                16         0.249856   0.749980   0.500000   x
            x  C                17         0.667097   0.083062   0.499998   x
            x  C                18         0.499454   0.000118   0.499989   x
            x  C                19         0.670696   0.336189   0.499258   x
            x  C                20         0.499784   0.249486   0.499846   x
            x  C                21         0.666935   0.583641   0.499245   x
            x  C                22         0.496203   0.497239   0.499297   x
            x  C                23         0.667335   0.833281   0.499994   x
            x  C                24         0.499737   0.750347   0.499996   x
            x  C                25         0.916822   0.083416   0.500000   x
            x  C                26         0.750113   0.000238   0.500025   x
            x  C                27         0.916811   0.333438   0.500012   x
            x  C                28         0.750151   0.250222   0.500025   x
            x  C                29         0.916578   0.583200   0.500027   x
            x  C                30         0.751204   0.497301   0.499317   x
            x  C                31         0.916015   0.833220   0.499994   x
            x  C                32         0.751962   0.753741   0.499224   x
            xxxxxxxxxxxxxxxxxxxxxxxxxxxxxxxxxxxxxxxxxxxxxxxxxxxxxxxxxxxxxxxxx
 
 
------------------------------------------------------------------------ <-- SCF
SCF loop      Energy           Fermi           Energy gain       Timer   <-- SCF
                               energy          per atom          (sec)   <-- SCF
------------------------------------------------------------------------ <-- SCF
Initial  -5.19272230E+003  0.00000000E+000                       164.94  <-- SCF
      1  -5.19974169E+003 -1.95168584E+000   2.06452434E-001     169.80  <-- SCF
      2  -5.19980398E+003 -1.95253294E+000   1.83212926E-003     176.99  <-- SCF
      3  -5.19972953E+003 -1.93799387E+000  -2.18956424E-003     183.22  <-- SCF
      4  -5.19972438E+003 -1.94453733E+000  -1.51667867E-004     189.21  <-- SCF
      5  -5.19972480E+003 -1.94262331E+000   1.25236694E-005     196.18  <-- SCF
      6  -5.19972476E+003 -1.94239330E+000  -1.23718120E-006     201.32  <-- SCF
      7  -5.19972478E+003 -1.94211732E+000   5.20214675E-007     206.32  <-- SCF
      8  -5.19972480E+003 -1.94189886E+000   6.45084180E-007     211.33  <-- SCF
      9  -5.19972483E+003 -1.94180157E+000   8.87946580E-007     216.30  <-- SCF
     10  -5.19972486E+003 -1.94168421E+000   9.46557161E-007     221.27  <-- SCF
     11  -5.19972488E+003 -1.94160867E+000   6.02467026E-007     226.29  <-- SCF
     12  -5.19972490E+003 -1.94160644E+000   5.43454622E-007     231.31  <-- SCF
     13  -5.19972492E+003 -1.94160379E+000   3.83505392E-007     236.42  <-- SCF
------------------------------------------------------------------------ <-- SCF
 
Final energy, E             =  -5199.713206231     eV
Final free energy (E-TS)    =  -5199.724915115     eV
(energies not corrected for finite basis set)
 
NB est. 0K energy (E-0.5TS)      =  -5199.719060673     eV
 
(SEDC) Total Energy Correction : -0.281509E+01 eV

Dispersion corrected final energy*, Ecor          =  -5202.528301003     eV
Dispersion corrected final free energy* (Ecor-TS) =  -5202.540009887     eV
NB dispersion corrected est. 0K energy* (Ecor-0.5TS) =  -5202.534155445     eV
 
 ************************************** Forces **************************************
 *                                                                                  *
 *                           Cartesian components (eV/A)                            *
 * -------------------------------------------------------------------------------- *
 *                         x                    y                    z              *
 *                                                                                  *
 * H               1     -0.01992             -0.22079              2.96704         *
 * H               2      0.02374              0.02843              3.10718         *
 * C               1      0.05636              0.12396              0.02492         *
 * C               2      0.02277              0.11222              0.06940         *
 * C               3     -0.05960             -0.06973              0.02495         *
 * C               4      0.00020             -0.00719              0.00134         *
 * C               5     -0.00526              0.01330              0.00390         *
 * C               6      0.05205              0.07419              0.02972         *
 * C               7     -0.01978             -0.10593              0.05525         *
 * C               8     -0.07558             -0.13589              0.01593         *
 * C               9     -0.00053             -1.22780             -1.34772         *
 * C              10     -0.02255             -0.38566             -0.11427         *
 * C              11     -1.18528              0.32458             -1.52996         *
 * C              12     -0.49797              0.11296             -0.01559         *
 * C              13     -0.50669             -0.09866             -0.01321         *
 * C              14     -0.05828              0.07387              0.03042         *
 * C              15      0.01358             -0.10221              0.05530         *
 * C              16     -0.00926             -0.13580             -0.00359         *
 * C              17     -0.05065              0.11910              0.02524         *
 * C              18      0.02373             -0.38628             -0.11407         *
 * C              19      1.19629              0.33220             -1.56782         *
 * C              20      0.01559              0.24514              1.56416         *
 * C              21     -0.01277             -0.09503              1.48391         *
 * C              22     -1.15569             -0.35372             -1.52449         *
 * C              23     -0.05059              0.41409             -0.11649         *
 * C              24      0.06387             -0.13205              0.01478         *
 * C              25      0.00723              0.13612             -0.00587         *
 * C              26     -0.01959              0.11114              0.06942         *
 * C              27      0.06033             -0.07149              0.02620         *
 * C              28      0.49967              0.11367             -0.01982         *
 * C              29      0.50086             -0.09256             -0.00825         *
 * C              30      1.15725             -0.34279             -1.49161         *
 * C              31      0.05807              0.41685             -0.11598         *
 * C              32     -0.00160              1.21175             -1.58032         *
 *                                                                                  *
 ************************************************************************************
  
 +------------+-------------+-------------+-----------------+ <-- min LBFGS
 |    Step    |   lambda    |   F.delta'  |    enthalpy     | <-- min LBFGS
 +------------+-------------+-------------+-----------------+ <-- min LBFGS
 |  previous  |    0.000000 |    5.368343 |    -5201.459327 | <-- min LBFGS
 | trial step |    1.000000 |    2.133590 |    -5202.540010 | <-- min LBFGS
 +------------+-------------+-------------+-----------------+ <-- min LBFGS
  

--------------------------------------------------------------------------------
 LBFGS: improving iteration         1 with line minimization (lambda=  1.659584)
--------------------------------------------------------------------------------
 
                           -------------------------------
                                     Cell Contents
                           -------------------------------
 
            xxxxxxxxxxxxxxxxxxxxxxxxxxxxxxxxxxxxxxxxxxxxxxxxxxxxxxxxxxxxxxxxx
            x  Element         Atom        Fractional coordinates of atoms  x
            x                 Number           u          v          w      x
            x---------------------------------------------------------------x
            x  H                 1         0.501669   0.251552   0.554018   x
            x  H                 2         0.669671   0.590749   0.553652   x
            x  C                 1         0.165655   0.082894   0.499996   x
            x  C                 2         0.000400   0.000414   0.500040   x
            x  C                 3         0.166578   0.333337   0.500018   x
            x  C                 4        -0.000364   0.249532   0.499998   x
            x  C                 5         0.166696   0.583686   0.499999   x
            x  C                 6        -0.000221   0.499869   0.500017   x
            x  C                 7         0.166022   0.832866   0.500033   x
            x  C                 8         0.000740   0.750312   0.499993   x
            x  C                 9         0.413776   0.077533   0.498917   x
            x  C                10         0.251179   0.000263   0.499979   x
            x  C                11         0.414913   0.337957   0.498804   x
            x  C                12         0.250256   0.250328   0.500041   x
            x  C                13         0.416658   0.582956   0.500042   x
            x  C                14         0.249819   0.499897   0.500018   x
            x  C                15         0.416685   0.832931   0.500032   x
            x  C                16         0.249787   0.749886   0.499999   x
            x  C                17         0.667351   0.082955   0.499996   x
            x  C                18         0.499090   0.000296   0.499980   x
            x  C                19         0.673287   0.338059   0.498768   x
            x  C                20         0.499633   0.249238   0.499743   x
            x  C                21         0.667013   0.583728   0.498745   x
            x  C                22         0.493655   0.495384   0.498831   x
            x  C                23         0.667697   0.833114   0.499989   x
            x  C                24         0.499486   0.750449   0.499992   x
            x  C                25         0.916891   0.083511   0.499998   x
            x  C                26         0.750105   0.000456   0.500040   x
            x  C                27         0.916838   0.333477   0.500019   x
            x  C                28         0.750150   0.250421   0.500040   x
            x  C                29         0.916407   0.582996   0.500044   x
            x  C                30         0.751856   0.495463   0.498865   x
            x  C                31         0.915517   0.833051   0.499989   x
            x  C                32         0.753123   0.756089   0.498710   x
            xxxxxxxxxxxxxxxxxxxxxxxxxxxxxxxxxxxxxxxxxxxxxxxxxxxxxxxxxxxxxxxxx
 
 
------------------------------------------------------------------------ <-- SCF
SCF loop      Energy           Fermi           Energy gain       Timer   <-- SCF
                               energy          per atom          (sec)   <-- SCF
------------------------------------------------------------------------ <-- SCF
Initial  -5.19691078E+003  0.00000000E+000                       240.76  <-- SCF
      1  -5.19995153E+003 -2.02154982E+000   8.94339256E-002     245.66  <-- SCF
      2  -5.19997291E+003 -2.02181646E+000   6.28747581E-004     253.03  <-- SCF
      3  -5.19994228E+003 -2.00882584E+000  -9.00936974E-004     259.13  <-- SCF
      4  -5.19993958E+003 -2.01396572E+000  -7.93772233E-005     265.22  <-- SCF
      5  -5.19993979E+003 -2.01279788E+000   6.05993946E-006     271.59  <-- SCF
      6  -5.19993976E+003 -2.01263037E+000  -6.94970898E-007     276.66  <-- SCF
      7  -5.19993976E+003 -2.01240383E+000   8.65662298E-008     281.67  <-- SCF
------------------------------------------------------------------------ <-- SCF
 
Final energy, E             =  -5199.930805745     eV
Final free energy (E-TS)    =  -5199.939764878     eV
(energies not corrected for finite basis set)
 
NB est. 0K energy (E-0.5TS)      =  -5199.935285312     eV
 
(SEDC) Total Energy Correction : -0.281709E+01 eV

Dispersion corrected final energy*, Ecor          =  -5202.747897591     eV
Dispersion corrected final free energy* (Ecor-TS) =  -5202.756856724     eV
NB dispersion corrected est. 0K energy* (Ecor-0.5TS) =  -5202.752377157     eV
 
 ************************************** Forces **************************************
 *                                                                                  *
 *                           Cartesian components (eV/A)                            *
 * -------------------------------------------------------------------------------- *
 *                         x                    y                    z              *
 *                                                                                  *
 * H               1     -0.02652             -0.19967              1.79512         *
 * H               2      0.03275             -0.07054              1.45403         *
 * C               1      0.41330              0.31429              0.04491         *
 * C               2     -0.06882             -0.03497              0.08132         *
 * C               3     -0.13458             -0.15789              0.02766         *
 * C               4      0.02294              0.09816              0.00635         *
 * C               5     -0.02534             -0.08730              0.00979         *
 * C               6      0.11880              0.15624              0.03580         *
 * C               7      0.07912              0.04836              0.06434         *
 * C               8     -0.43119             -0.32751              0.03256         *
 * C               9     -0.01922              0.14612             -1.23089         *
 * C              10     -0.57220             -0.83653             -0.16264         *
 * C              11     -0.22755             -1.54551             -1.41781         *
 * C              12     -0.89759             -0.02158             -0.05778         *
 * C              13     -0.95532              0.05100             -0.05559         *
 * C              14     -0.08114              0.15841              0.03663         *
 * C              15     -0.12030              0.04912              0.06447         *
 * C              16      0.00980             -0.13309             -0.00316         *
 * C              17     -0.44355              0.31076              0.04523         *
 * C              18      0.60678             -0.83507             -0.16217         *
 * C              19      0.18435             -1.53838             -1.44803         *
 * C              20      0.04644              0.60374              2.51021         *
 * C              21     -0.04942             -0.26554              2.95184         *
 * C              22     -0.15253              1.49198             -1.44339         *
 * C              23     -0.64106              0.86867             -0.17355         *
 * C              24      0.45713             -0.32497              0.03146         *
 * C              25     -0.01312              0.13298             -0.00567         *
 * C              26      0.10935             -0.03644              0.08143         *
 * C              27      0.08924             -0.16077              0.02912         *
 * C              28      0.94863             -0.02112             -0.06362         *
 * C              29      0.90736              0.05870             -0.04892         *
 * C              30      0.20407              1.49882             -1.41857         *
 * C              31      0.61127              0.87179             -0.17316         *
 * C              32      0.01810             -0.26227             -1.43733         *
 *                                                                                  *
 ************************************************************************************
  
 +------------+-------------+-------------+-----------------+ <-- min LBFGS
 |    Step    |   lambda    |   F.delta'  |    enthalpy     | <-- min LBFGS
 +------------+-------------+-------------+-----------------+ <-- min LBFGS
 |  previous  |    0.000000 |    5.368343 |    -5201.459327 | <-- min LBFGS
 | trial step |    1.000000 |    2.133590 |    -5202.540010 | <-- min LBFGS
 |  line step |    1.659584 |    0.170146 |    -5202.756857 | <-- min LBFGS
 +------------+-------------+-------------+-----------------+ <-- min LBFGS
  
 LBFGS: finished iteration     1 with enthalpy= -5.20275686E+003 eV
  
 +-----------+-----------------+-----------------+------------+-----+ <-- LBFGS
 | Parameter |      value      |    tolerance    |    units   | OK? | <-- LBFGS
 +-----------+-----------------+-----------------+------------+-----+ <-- LBFGS
 |  dE/ion   |   3.816265E-002 |   2.000000E-005 |         eV | No  | <-- LBFGS
 |  |F|max   |   2.964168E+000 |   1.000000E-002 |       eV/A | No  | <-- LBFGS
 |  |dR|max  |   9.465190E-002 |   1.000000E-003 |          A | No  | <-- LBFGS
 +-----------+-----------------+-----------------+------------+-----+ <-- LBFGS
  

================================================================================
 Starting LBFGS iteration          2 ...
================================================================================
  
 +------------+-------------+-------------+-----------------+ <-- min LBFGS
 |    Step    |   lambda    |   F.delta'  |    enthalpy     | <-- min LBFGS
 +------------+-------------+-------------+-----------------+ <-- min LBFGS
 |  previous  |    0.000000 |    3.346478 |    -5202.756857 | <-- min LBFGS
 +------------+-------------+-------------+-----------------+ <-- min LBFGS
  

--------------------------------------------------------------------------------
 LBFGS: starting iteration         2 with trial guess (lambda=  1.000000)
--------------------------------------------------------------------------------
 
                           -------------------------------
                                     Cell Contents
                           -------------------------------
 
            xxxxxxxxxxxxxxxxxxxxxxxxxxxxxxxxxxxxxxxxxxxxxxxxxxxxxxxxxxxxxxxxx
            x  Element         Atom        Fractional coordinates of atoms  x
            x                 Number           u          v          w      x
            x---------------------------------------------------------------x
            x  H                 1         0.501500   0.251267   0.555529   x
            x  H                 2         0.669703   0.590753   0.555212   x
            x  C                 1         0.166031   0.083170   0.500014   x
            x  C                 2         0.000417   0.000485   0.500083   x
            x  C                 3         0.166400   0.333193   0.500033   x
            x  C                 4        -0.000329   0.249579   0.500000   x
            x  C                 5         0.166662   0.583650   0.500002   x
            x  C                 6        -0.000055   0.500016   0.500036   x
            x  C                 7         0.166017   0.832806   0.500067   x
            x  C                 8         0.000335   0.750020   0.500006   x
            x  C                 9         0.413295   0.076595   0.498161   x
            x  C                10         0.250483  -0.000517   0.499903   x
            x  C                11         0.413580   0.337258   0.497943   x
            x  C                12         0.249516   0.250403   0.500022   x
            x  C                13         0.415823   0.582908   0.500026   x
            x  C                14         0.249814   0.500045   0.500037   x
            x  C                15         0.416608   0.832876   0.500067   x
            x  C                16         0.249694   0.749702   0.499997   x
            x  C                17         0.667236   0.083225   0.500014   x
            x  C                18         0.499025  -0.000485   0.499903   x
            x  C                19         0.673918   0.337373   0.497886   x
            x  C                20         0.499915   0.249743   0.500806   x
            x  C                21         0.666870   0.583494   0.499810   x
            x  C                22         0.493049   0.496029   0.497964   x
            x  C                23         0.667747   0.833934   0.499909   x
            x  C                24         0.499606   0.750161   0.500004   x
            x  C                25         0.916982   0.083695   0.499994   x
            x  C                26         0.750181   0.000525   0.500083   x
            x  C                27         0.916848   0.333330   0.500035   x
            x  C                28         0.750992   0.250496   0.500019   x
            x  C                29         0.917171   0.582957   0.500030   x
            x  C                30         0.753136   0.496124   0.498015   x
            x  C                31         0.916277   0.833874   0.499909   x
            x  C                32         0.753569   0.756962   0.497822   x
            xxxxxxxxxxxxxxxxxxxxxxxxxxxxxxxxxxxxxxxxxxxxxxxxxxxxxxxxxxxxxxxxx
 
 
------------------------------------------------------------------------ <-- SCF
SCF loop      Energy           Fermi           Energy gain       Timer   <-- SCF
                               energy          per atom          (sec)   <-- SCF
------------------------------------------------------------------------ <-- SCF
Initial  -5.19751769E+003  0.00000000E+000                       286.02  <-- SCF
      1  -5.20033752E+003 -2.05716495E+000   8.29362848E-002     290.62  <-- SCF
      2  -5.20035483E+003 -2.05747267E+000   5.08966249E-004     297.93  <-- SCF
      3  -5.20034502E+003 -2.05806456E+000  -2.88448382E-004     303.97  <-- SCF
      4  -5.20034522E+003 -2.05727434E+000   6.05251365E-006     310.02  <-- SCF
      5  -5.20034525E+003 -2.05745928E+000   6.83481810E-007     315.16  <-- SCF
      6  -5.20034527E+003 -2.05747803E+000   6.28968399E-007     320.18  <-- SCF
      7  -5.20034533E+003 -2.05771487E+000   1.67933755E-006     325.10  <-- SCF
      8  -5.20034539E+003 -2.05793895E+000   1.90251361E-006     329.97  <-- SCF
      9  -5.20034545E+003 -2.05822901E+000   1.69683986E-006     334.99  <-- SCF
     10  -5.20034548E+003 -2.05850068E+000   1.01821802E-006     340.00  <-- SCF
     11  -5.20034550E+003 -2.05884795E+000   5.56481444E-007     345.07  <-- SCF
     12  -5.20034551E+003 -2.05922275E+000   2.42229400E-007     350.17  <-- SCF
------------------------------------------------------------------------ <-- SCF
 
Final energy, E             =  -5200.338115548     eV
Final free energy (E-TS)    =  -5200.345509736     eV
(energies not corrected for finite basis set)
 
NB est. 0K energy (E-0.5TS)      =  -5200.341812642     eV
 
(SEDC) Total Energy Correction : -0.281666E+01 eV

Dispersion corrected final energy*, Ecor          =  -5203.154776488     eV
Dispersion corrected final free energy* (Ecor-TS) =  -5203.162170676     eV
NB dispersion corrected est. 0K energy* (Ecor-0.5TS) =  -5203.158473582     eV
 
 ************************************** Forces **************************************
 *                                                                                  *
 *                           Cartesian components (eV/A)                            *
 * -------------------------------------------------------------------------------- *
 *                         x                    y                    z              *
 *                                                                                  *
 * H               1     -0.02674             -0.15830              1.43082         *
 * H               2      0.03277             -0.11561              1.07905         *
 * C               1      0.15536              0.11457              0.08026         *
 * C               2      0.08427              0.21909              0.07242         *
 * C               3     -0.29541              0.02929              0.02247         *
 * C               4      0.01462              0.09503              0.02662         *
 * C               5     -0.01533             -0.09214              0.03000         *
 * C               6      0.28917             -0.02776              0.02948         *
 * C               7     -0.07897             -0.20549              0.05794         *
 * C               8     -0.15069             -0.10248              0.06891         *
 * C               9     -0.00964              0.48036             -0.91471         *
 * C              10     -0.36355             -0.46773             -0.23917         *
 * C              11      0.18817             -0.82917             -1.19108         *
 * C              12     -0.61869             -0.20061             -0.15692         *
 * C              13     -0.63156              0.19467             -0.15703         *
 * C              14     -0.26773             -0.02305              0.03007         *
 * C              15      0.05234             -0.20460              0.05801         *
 * C              16      0.00398             -0.04274              0.00406         *
 * C              17     -0.17416              0.10978              0.08025         *
 * C              18      0.38571             -0.46669             -0.23826         *
 * C              19     -0.21105             -0.82584             -1.21263         *
 * C              20      0.03404              0.21173              2.38177         *
 * C              21     -0.03472              0.00503              2.84376         *
 * C              22      0.19669              0.82382             -1.21960         *
 * C              23     -0.38197              0.46982             -0.26643         *
 * C              24      0.16954             -0.10118              0.06740         *
 * C              25     -0.00669              0.04718              0.00316         *
 * C              26     -0.05838              0.21549              0.07241         *
 * C              27      0.27035              0.02859              0.02384         *
 * C              28      0.64720             -0.19647             -0.16461         *
 * C              29      0.60464              0.20623             -0.14873         *
 * C              30     -0.17257              0.82310             -1.20330         *
 * C              31      0.35688              0.47024             -0.26687         *
 * C              32      0.01211             -0.48416             -1.08334         *
 *                                                                                  *
 ************************************************************************************
  
 +------------+-------------+-------------+-----------------+ <-- min LBFGS
 |    Step    |   lambda    |   F.delta'  |    enthalpy     | <-- min LBFGS
 +------------+-------------+-------------+-----------------+ <-- min LBFGS
 |  previous  |    0.000000 |    3.346478 |    -5202.756857 | <-- min LBFGS
 | trial step |    1.000000 |    2.501485 |    -5203.162171 | <-- min LBFGS
 +------------+-------------+-------------+-----------------+ <-- min LBFGS
  

--------------------------------------------------------------------------------
 LBFGS: improving iteration         2 with line minimization (lambda=  3.960362)
--------------------------------------------------------------------------------
 
                           -------------------------------
                                     Cell Contents
                           -------------------------------
 
            xxxxxxxxxxxxxxxxxxxxxxxxxxxxxxxxxxxxxxxxxxxxxxxxxxxxxxxxxxxxxxxxx
            x  Element         Atom        Fractional coordinates of atoms  x
            x                 Number           u          v          w      x
            x---------------------------------------------------------------x
            x  H                 1         0.501002   0.250422   0.560002   x
            x  H                 2         0.669800   0.590767   0.559831   x
            x  C                 1         0.167142   0.083987   0.500069   x
            x  C                 2         0.000467   0.000696   0.500212   x
            x  C                 3         0.165874   0.332764   0.500078   x
            x  C                 4        -0.000227   0.249718   0.500005   x
            x  C                 5         0.166562   0.583543   0.500013   x
            x  C                 6         0.000437   0.500452   0.500091   x
            x  C                 7         0.166004   0.832631   0.500169   x
            x  C                 8        -0.000864   0.749156   0.500043   x
            x  C                 9         0.411873   0.073818   0.495922   x
            x  C                10         0.248425  -0.002823   0.499676   x
            x  C                11         0.409635   0.335188   0.495394   x
            x  C                12         0.247325   0.250624   0.499968   x
            x  C                13         0.413354   0.582767   0.499976   x
            x  C                14         0.249801   0.500484   0.500094   x
            x  C                15         0.416379   0.832713   0.500169   x
            x  C                16         0.249416   0.749157   0.499991   x
            x  C                17         0.666899   0.084025   0.500070   x
            x  C                18         0.498832  -0.002795   0.499677   x
            x  C                19         0.675785   0.335343   0.495276   x
            x  C                20         0.500750   0.251241   0.503952   x
            x  C                21         0.666443   0.582803   0.502963   x
            x  C                22         0.491257   0.497937   0.495396   x
            x  C                23         0.667898   0.836363   0.499673   x
            x  C                24         0.499962   0.749308   0.500039   x
            x  C                25         0.917251   0.084242   0.499984   x
            x  C                26         0.750404   0.000728   0.500212   x
            x  C                27         0.916877   0.332892   0.500082   x
            x  C                28         0.753483   0.250719   0.499956   x
            x  C                29         0.919431   0.582842   0.499990   x
            x  C                30         0.756925   0.498078   0.495500   x
            x  C                31         0.918526   0.836309   0.499674   x
            x  C                32         0.754890   0.759546   0.495193   x
            xxxxxxxxxxxxxxxxxxxxxxxxxxxxxxxxxxxxxxxxxxxxxxxxxxxxxxxxxxxxxxxxx
 
 
------------------------------------------------------------------------ <-- SCF
SCF loop      Energy           Fermi           Energy gain       Timer   <-- SCF
                               energy          per atom          (sec)   <-- SCF
------------------------------------------------------------------------ <-- SCF
Initial  -5.18179734E+003  0.00000000E+000                       354.52  <-- SCF
      1  -5.20047289E+003 -2.16425133E+000   5.49280680E-001     359.28  <-- SCF
      2  -5.20089440E+003 -2.17716344E+000   1.23974162E-002     366.04  <-- SCF
      3  -5.20082071E+003 -2.17919210E+000  -2.16729409E-003     372.21  <-- SCF
      4  -5.20082008E+003 -2.17904055E+000  -1.86774528E-005     378.34  <-- SCF
      5  -5.20082020E+003 -2.18007851E+000   3.64784305E-006     384.81  <-- SCF
      6  -5.20082021E+003 -2.18005051E+000   2.25392064E-007     390.05  <-- SCF
      7  -5.20082036E+003 -2.18070003E+000   4.32523898E-006     395.00  <-- SCF
      8  -5.20082055E+003 -2.18120943E+000   5.59106083E-006     400.06  <-- SCF
      9  -5.20082075E+003 -2.18184474E+000   6.08231018E-006     405.07  <-- SCF
     10  -5.20082088E+003 -2.18236534E+000   3.62590577E-006     410.14  <-- SCF
     11  -5.20082097E+003 -2.18291640E+000   2.64963240E-006     415.18  <-- SCF
     12  -5.20082100E+003 -2.18336861E+000   8.66579612E-007     420.26  <-- SCF
     13  -5.20082100E+003 -2.18393091E+000   1.43329627E-007     425.32  <-- SCF
     14  -5.20082100E+003 -2.18450374E+000  -6.50982652E-008     430.33  <-- SCF
------------------------------------------------------------------------ <-- SCF
 
Final energy, E             =  -5200.816637608     eV
Final free energy (E-TS)    =  -5200.820997875     eV
(energies not corrected for finite basis set)
 
NB est. 0K energy (E-0.5TS)      =  -5200.818817741     eV
 
(SEDC) Total Energy Correction : -0.281443E+01 eV

Dispersion corrected final energy*, Ecor          =  -5203.631067901     eV
Dispersion corrected final free energy* (Ecor-TS) =  -5203.635428167     eV
NB dispersion corrected est. 0K energy* (Ecor-0.5TS) =  -5203.633248034     eV
 
 ************************************** Forces **************************************
 *                                                                                  *
 *                           Cartesian components (eV/A)                            *
 * -------------------------------------------------------------------------------- *
 *                         x                    y                    z              *
 *                                                                                  *
 * H               1     -0.02342             -0.01966              0.38720         *
 * H               2      0.02920             -0.23092              0.01705         *
 * C               1     -0.57940             -0.47475              0.19257         *
 * C               2      0.52821              0.99935              0.05360         *
 * C               3     -0.80706              0.59776              0.00692         *
 * C               4     -0.01163              0.07995              0.08610         *
 * C               5      0.01580             -0.10163              0.08976         *
 * C               6      0.82855             -0.58817              0.01052         *
 * C               7     -0.53659             -0.98143              0.04581         *
 * C               8      0.64778              0.56362              0.18510         *
 * C               9      0.01950              1.40593              0.12850         *
 * C              10      0.23224              0.64413             -0.46576         *
 * C              11      1.46597              1.04356             -0.43802         *
 * C              12      0.22415             -0.75042             -0.43246         *
 * C              13      0.36066              0.63866             -0.44718         *
 * C              14     -0.86303             -0.57862              0.01090         *
 * C              15      0.55093             -0.98133              0.04653         *
 * C              16     -0.01261              0.21697              0.02381         *
 * C              17      0.59515             -0.47971              0.19116         *
 * C              18     -0.24958              0.64481             -0.46452         *
 * C              19     -1.42610              1.03175             -0.43100         *
 * C              20     -0.00440             -0.80546              1.64063         *
 * C              21      0.00978              0.71666              2.13961         *
 * C              22      1.27192             -0.90480             -0.47225         *
 * C              23      0.36235             -0.73787             -0.54571         *
 * C              24     -0.65093              0.55764              0.18187         *
 * C              25      0.01163             -0.19768              0.02753         *
 * C              26     -0.54366              0.98987              0.05407         *
 * C              27      0.85101              0.60661              0.00860         *
 * C              28     -0.27300             -0.73934             -0.44718         *
 * C              29     -0.31562              0.65836             -0.43198         *
 * C              30     -1.33090             -0.93026             -0.48336         *
 * C              31     -0.37035             -0.74541             -0.54784         *
 * C              32     -0.00653             -1.14814              0.07941         *
 *                                                                                  *
 ************************************************************************************
  
 +------------+-------------+-------------+-----------------+ <-- min LBFGS
 |    Step    |   lambda    |   F.delta'  |    enthalpy     | <-- min LBFGS
 +------------+-------------+-------------+-----------------+ <-- min LBFGS
 |  previous  |    0.000000 |    3.346478 |    -5202.756857 | <-- min LBFGS
 | trial step |    1.000000 |    2.501485 |    -5203.162171 | <-- min LBFGS
 |  line step |    3.960362 |   -0.128665 |    -5203.635428 | <-- min LBFGS
 +------------+-------------+-------------+-----------------+ <-- min LBFGS
  
 LBFGS: finished iteration     2 with enthalpy= -5.20363543E+003 eV
  
 +-----------+-----------------+-----------------+------------+-----+ <-- LBFGS
 | Parameter |      value      |    tolerance    |    units   | OK? | <-- LBFGS
 +-----------+-----------------+-----------------+------------+-----+ <-- LBFGS
 |  dE/ion   |   2.584034E-002 |   2.000000E-005 |         eV | No  | <-- LBFGS
 |  |F|max   |   2.256464E+000 |   1.000000E-002 |       eV/A | No  | <-- LBFGS
 |  |dR|max  |   1.237911E-001 |   1.000000E-003 |          A | No  | <-- LBFGS
 +-----------+-----------------+-----------------+------------+-----+ <-- LBFGS
  

================================================================================
 Starting LBFGS iteration          3 ...
================================================================================
  
 +------------+-------------+-------------+-----------------+ <-- min LBFGS
 |    Step    |   lambda    |   F.delta'  |    enthalpy     | <-- min LBFGS
 +------------+-------------+-------------+-----------------+ <-- min LBFGS
 |  previous  |    0.000000 |    2.473569 |    -5203.635428 | <-- min LBFGS
 +------------+-------------+-------------+-----------------+ <-- min LBFGS
  

--------------------------------------------------------------------------------
 LBFGS: starting iteration         3 with trial guess (lambda=  1.000000)
--------------------------------------------------------------------------------
 
                           -------------------------------
                                     Cell Contents
                           -------------------------------
 
            xxxxxxxxxxxxxxxxxxxxxxxxxxxxxxxxxxxxxxxxxxxxxxxxxxxxxxxxxxxxxxxxx
            x  Element         Atom        Fractional coordinates of atoms  x
            x                 Number           u          v          w      x
            x---------------------------------------------------------------x
            x  H                 1         0.500880   0.250246   0.560971   x
            x  H                 2         0.669728   0.590540   0.560659   x
            x  C                 1         0.166654   0.083688   0.500159   x
            x  C                 2         0.001396   0.001696   0.500258   x
            x  C                 3         0.165383   0.333258   0.500089   x
            x  C                 4        -0.000175   0.249826   0.500042   x
            x  C                 5         0.166504   0.583420   0.500052   x
            x  C                 6         0.000944   0.499968   0.500106   x
            x  C                 7         0.165084   0.831656   0.500207   x
            x  C                 8        -0.000291   0.749531   0.500127   x
            x  C                 9         0.412336   0.074727   0.495559   x
            x  C                10         0.248515  -0.002652   0.499440   x
            x  C                11         0.410633   0.335730   0.494739   x
            x  C                12         0.246721   0.249933   0.499778   x
            x  C                13         0.413489   0.583366   0.499780   x
            x  C                14         0.248796   0.500010   0.500109   x
            x  C                15         0.416321   0.831740   0.500207   x
            x  C                16         0.249460   0.749265   0.499999   x
            x  C                17         0.667091   0.083719   0.500160   x
            x  C                18         0.498911  -0.002623   0.499442   x
            x  C                19         0.675352   0.335881   0.494613   x
            x  C                20         0.500522   0.250759   0.505242   x
            x  C                21         0.666713   0.583360   0.504475   x
            x  C                22         0.491635   0.497498   0.494723   x
            x  C                23         0.667860   0.836124   0.499403   x
            x  C                24         0.499764   0.749680   0.500122   x
            x  C                25         0.917214   0.084152   0.499993   x
            x  C                26         0.750471   0.001717   0.500258   x
            x  C                27         0.917889   0.333393   0.500095   x
            x  C                28         0.753377   0.250039   0.499759   x
            x  C                29         0.919927   0.583465   0.499803   x
            x  C                30         0.756065   0.497623   0.494832   x
            x  C                31         0.918307   0.836064   0.499403   x
            x  C                32         0.754540   0.758846   0.494738   x
            xxxxxxxxxxxxxxxxxxxxxxxxxxxxxxxxxxxxxxxxxxxxxxxxxxxxxxxxxxxxxxxxx
 
 
------------------------------------------------------------------------ <-- SCF
SCF loop      Energy           Fermi           Energy gain       Timer   <-- SCF
                               energy          per atom          (sec)   <-- SCF
------------------------------------------------------------------------ <-- SCF
Initial  -5.19822238E+003  0.00000000E+000                       434.68  <-- SCF
      1  -5.20107710E+003 -2.22602323E+000   8.39624160E-002     439.28  <-- SCF
      2  -5.20109438E+003 -2.22616451E+000   5.08397933E-004     446.71  <-- SCF
      3  -5.20108265E+003 -2.22537522E+000  -3.45277079E-004     452.89  <-- SCF
      4  -5.20108209E+003 -2.22664584E+000  -1.62754773E-005     458.86  <-- SCF
      5  -5.20108218E+003 -2.22608876E+000   2.49186776E-006     464.94  <-- SCF
      6  -5.20108217E+003 -2.22624562E+000  -1.45251352E-007     470.03  <-- SCF
      7  -5.20108217E+003 -2.22629122E+000  -2.37177681E-008     475.11  <-- SCF
------------------------------------------------------------------------ <-- SCF
 
Final energy, E             =  -5201.078375972     eV
Final free energy (E-TS)    =  -5201.082170729     eV
(energies not corrected for finite basis set)
 
NB est. 0K energy (E-0.5TS)      =  -5201.080273350     eV
 
(SEDC) Total Energy Correction : -0.281232E+01 eV

Dispersion corrected final energy*, Ecor          =  -5203.890697459     eV
Dispersion corrected final free energy* (Ecor-TS) =  -5203.894492217     eV
NB dispersion corrected est. 0K energy* (Ecor-0.5TS) =  -5203.892594838     eV
 
 ************************************** Forces **************************************
 *                                                                                  *
 *                           Cartesian components (eV/A)                            *
 * -------------------------------------------------------------------------------- *
 *                         x                    y                    z              *
 *                                                                                  *
 * H               1     -0.02027              0.00594              0.46386         *
 * H               2      0.02564             -0.23087              0.23655         *
 * C               1     -0.20930             -0.22137              0.15127         *
 * C               2      0.06210              0.20866              0.01725         *
 * C               3     -0.28315              0.11736             -0.02176         *
 * C               4     -0.00343             -0.00194              0.10662         *
 * C               5      0.00818              0.00403              0.10935         *
 * C               6      0.28013             -0.10939             -0.02008         *
 * C               7     -0.06770             -0.20884              0.01713         *
 * C               8      0.23270              0.25355              0.14407         *
 * C               9      0.00876              0.96162              0.30463         *
 * C              10      0.26213              0.37423             -0.44413         *
 * C              11      0.99999              0.36280             -0.16127         *
 * C              12      0.36893             -0.09174             -0.48264         *
 * C              13      0.37834              0.07209             -0.49426         *
 * C              14     -0.29659             -0.10959             -0.02082         *
 * C              15      0.07937             -0.21255              0.01805         *
 * C              16     -0.00549             -0.03375              0.03743         *
 * C              17      0.21849             -0.22253              0.14887         *
 * C              18     -0.26562              0.36888             -0.44206         *
 * C              19     -0.98330              0.35469             -0.15121         *
 * C              20     -0.00679             -0.41386              1.04937         *
 * C              21      0.00975              0.32968              1.37339         *
 * C              22      0.93169             -0.27978             -0.18431         *
 * C              23      0.31376             -0.38102             -0.52292         *
 * C              24     -0.23658              0.24828              0.14005         *
 * C              25      0.00531              0.04360              0.04241         *
 * C              26     -0.07435              0.20550              0.01804         *
 * C              27      0.29821              0.11542             -0.02131         *
[...]
      C    19      Pz                   0.993
      C    20      S                    1.179
      C    20      Px                   0.976
      C    20      Py                   0.978
      C    20      Pz                   1.162
      C    21      S                    1.179
      C    21      Px                   0.977
      C    21      Py                   0.978
      C    21      Pz                   1.162
      C    22      S                    1.035
      C    22      Px                   0.969
      C    22      Py                   0.993
      C    22      Pz                   0.992
      C    23      S                    1.027
      C    23      Px                   0.989
      C    23      Py                   0.988
      C    23      Pz                   1.007
      C    24      S                    1.030
      C    24      Px                   0.987
      C    24      Py                   0.986
      C    24      Pz                   1.009
      C    25      S                    1.026
      C    25      Px                   0.986
      C    25      Py                   0.987
      C    25      Pz                   1.002
      C    26      S                    1.027
      C    26      Px                   0.989
      C    26      Py                   0.986
      C    26      Pz                   0.998
      C    27      S                    1.026
      C    27      Px                   0.987
      C    27      Py                   0.988
      C    27      Pz                   1.000
      C    28      S                    1.028
      C    28      Px                   0.989
      C    28      Py                   0.987
      C    28      Pz                   1.001
      C    29      S                    1.027
      C    29      Px                   0.990
      C    29      Py                   0.988
      C    29      Pz                   1.001
      C    30      S                    1.035
      C    30      Px                   0.968
      C    30      Py                   0.993
      C    30      Pz                   0.992
      C    31      S                    1.026
      C    31      Px                   0.989
      C    31      Py                   0.988
      C    31      Pz                   1.007
      C    32      S                    1.037
      C    32      Px                   0.995
      C    32      Py                   0.965
      C    32      Pz                   0.982
  -------------------------------------------
                           Total:     129.995
  -------------------------------------------
 
     Atomic Populations (Mulliken)
     -----------------------------
Species          Ion     s       p       d       f      Total   Charge (e)
==========================================================================
  H               1     0.691   0.000   0.000   0.000   0.691     0.309
  H               2     0.691   0.000   0.000   0.000   0.691     0.309
  C               1     1.030   2.981   0.000   0.000   4.011    -0.011
  C               2     1.027   2.973   0.000   0.000   4.000    -0.000
  C               3     1.027   2.973   0.000   0.000   3.999     0.001
  C               4     1.026   2.972   0.000   0.000   3.998     0.002
  C               5     1.027   2.971   0.000   0.000   3.998     0.002
  C               6     1.026   2.974   0.000   0.000   4.000     0.000
  C               7     1.027   2.972   0.000   0.000   4.000     0.000
  C               8     1.029   2.982   0.000   0.000   4.011    -0.011
  C               9     1.038   2.943   0.000   0.000   3.981     0.019
  C              10     1.027   2.984   0.000   0.000   4.010    -0.010
  C              11     1.035   2.954   0.000   0.000   3.989     0.011
  C              12     1.028   2.977   0.000   0.000   4.005    -0.005
  C              13     1.028   2.978   0.000   0.000   4.006    -0.006
  C              14     1.027   2.972   0.000   0.000   3.999     0.001
  C              15     1.028   2.972   0.000   0.000   4.000    -0.000
  C              16     1.027   2.975   0.000   0.000   4.002    -0.002
  C              17     1.030   2.981   0.000   0.000   4.011    -0.011
  C              18     1.027   2.984   0.000   0.000   4.010    -0.010
  C              19     1.035   2.954   0.000   0.000   3.989     0.011
  C              20     1.179   3.117   0.000   0.000   4.296    -0.296
  C              21     1.179   3.116   0.000   0.000   4.295    -0.295
  C              22     1.035   2.954   0.000   0.000   3.990     0.010
  C              23     1.027   2.984   0.000   0.000   4.010    -0.010
  C              24     1.030   2.981   0.000   0.000   4.012    -0.012
  C              25     1.026   2.976   0.000   0.000   4.001    -0.001
  C              26     1.027   2.972   0.000   0.000   4.000     0.000
  C              27     1.026   2.974   0.000   0.000   4.000     0.000
  C              28     1.028   2.977   0.000   0.000   4.005    -0.005
  C              29     1.027   2.979   0.000   0.000   4.005    -0.005
  C              30     1.035   2.954   0.000   0.000   3.988     0.012
  C              31     1.026   2.984   0.000   0.000   4.010    -0.010
  C              32     1.037   2.943   0.000   0.000   3.980     0.020
==========================================================================
 
                 Bond                   Population      Length (A)
======================================================================
               H 1 -- C 20                   0.79        1.12248
               H 2 -- C 21                   0.79        1.12250
              C 19 -- C 30                   1.26        1.38174
              C 11 -- C 22                   1.26        1.38195
              C 31 -- C 32                   1.15        1.40540
              C 9  -- C 10                   1.15        1.40639
              C 23 -- C 32                   1.15        1.40702
              C 9  -- C 18                   1.15        1.40714
              C 1  -- C 2                    1.10        1.41764
              C 7  -- C 8                    1.10        1.41775
              C 17 -- C 26                   1.10        1.41838
              C 15 -- C 24                   1.10        1.41860
              C 4  -- C 25                   1.08        1.41937
              C 5  -- C 16                   1.08        1.42073
              C 6  -- C 29                   1.08        1.42189
              C 29 -- C 30                   1.08        1.42248
              C 27 -- C 28                   1.08        1.42252
              C 19 -- C 28                   1.08        1.42323
              C 3  -- C 12                   1.08        1.42361
              C 13 -- C 22                   1.08        1.42362
              C 13 -- C 14                   1.08        1.42380
              C 11 -- C 12                   1.08        1.42380
              C 4  -- C 27                   1.07        1.42485
              C 6  -- C 27                   1.08        1.42486
              C 3  -- C 4                    1.07        1.42552
              C 5  -- C 6                    1.07        1.42555
              C 3  -- C 14                   1.07        1.42628
              C 5  -- C 14                   1.06        1.42654
              C 2  -- C 25                   1.07        1.42680
              C 8  -- C 29                   1.06        1.42782
              C 25 -- C 26                   1.07        1.42796
              C 7  -- C 16                   1.07        1.42807
              C 1  -- C 12                   1.06        1.42892
              C 15 -- C 16                   1.07        1.42902
              C 17 -- C 28                   1.06        1.42959
              C 13 -- C 24                   1.06        1.42969
              C 15 -- C 18                   1.04        1.42975
              C 23 -- C 26                   1.04        1.42987
              C 7  -- C 10                   1.04        1.43027
              C 2  -- C 31                   1.04        1.43028
              C 8  -- C 31                   1.03        1.43779
              C 23 -- C 24                   1.03        1.43904
              C 17 -- C 18                   1.03        1.43929
              C 1  -- C 10                   1.03        1.43943
              C 21 -- C 32                   0.82        1.50736
              C 9  -- C 20                   0.82        1.50773
              C 21 -- C 30                   0.81        1.51058
              C 11 -- C 20                   0.81        1.51108
              C 21 -- C 22                   0.81        1.51126
              C 19 -- C 20                   0.81        1.51139
               H 2 -- C 32                  -0.17        2.08165
               H 1 -- C 9                   -0.17        2.08222
               H 2 -- C 30                  -0.16        2.09441
               H 1 -- C 19                  -0.16        2.09506
               H 1 -- C 11                  -0.16        2.09547
               H 2 -- C 22                  -0.16        2.09579
              C 19 -- C 29                  -0.18        2.43992
              C 28 -- C 30                  -0.18        2.44038
              C 11 -- C 13                  -0.18        2.44056
              C 12 -- C 22                  -0.18        2.44102
              C 9  -- C 15                  -0.18        2.45062
              C 2  -- C 32                  -0.18        2.45069
              C 26 -- C 32                  -0.18        2.45101
              C 6  -- C 30                  -0.18        2.45144
              C 7  -- C 9                   -0.18        2.45245
              C 23 -- C 31                  -0.18        2.45341
              C 19 -- C 27                  -0.18        2.45369
              C 10 -- C 18                  -0.18        2.45484
              C 3  -- C 11                  -0.18        2.45572
              C 14 -- C 22                  -0.18        2.45576
              C 7  -- C 29                  -0.18        2.45909
              C 2  -- C 12                  -0.18        2.46080
              C 26 -- C 28                  -0.18        2.46164
              C 13 -- C 15                  -0.18        2.46169
              C 3  -- C 25                  -0.18        2.46214
              C 4  -- C 26                  -0.18        2.46328
              C 6  -- C 28                  -0.18        2.46351
              C 25 -- C 27                  -0.18        2.46469
              C 5  -- C 29                  -0.18        2.46473
              C 6  -- C 16                  -0.18        2.46479
              C 4  -- C 28                  -0.18        2.46479
              C 2  -- C 4                   -0.18        2.46494
              C 14 -- C 16                  -0.18        2.46495
              C 5  -- C 7                   -0.18        2.46504
              C 27 -- C 29                  -0.18        2.46604
              C 5  -- C 15                  -0.18        2.46608
              C 12 -- C 14                  -0.18        2.46629
              C 3  -- C 13                  -0.18        2.46666
              C 10 -- C 16                  -0.18        2.46667
              C 18 -- C 24                  -0.18        2.46721
              C 1  -- C 25                  -0.18        2.46735
              C 17 -- C 23                  -0.18        2.46738
              C 3  -- C 27                  -0.18        2.46744
              C 5  -- C 27                  -0.18        2.46758
              C 4  -- C 12                  -0.18        2.46762
              C 25 -- C 31                  -0.18        2.46768
              C 1  -- C 31                  -0.18        2.46779
              C 23 -- C 25                  -0.18        2.46851
              C 16 -- C 18                  -0.18        2.46889
              C 5  -- C 13                  -0.18        2.46892
              C 8  -- C 16                  -0.18        2.46920
              C 8  -- C 10                  -0.18        2.46930
              C 17 -- C 25                  -0.18        2.46951
              C 4  -- C 14                  -0.18        2.46984
              C 6  -- C 14                  -0.18        2.46989
              C 4  -- C 6                   -0.18        2.46993
              C 3  -- C 5                   -0.18        2.47027
              C 6  -- C 8                   -0.17        2.47069
              C 1  -- C 3                   -0.17        2.47077
              C 17 -- C 27                  -0.18        2.47109
              C 16 -- C 24                  -0.17        2.47131
              C 14 -- C 24                  -0.17        2.47192
              C 8  -- C 32                  -0.18        2.47243
              C 7  -- C 31                  -0.18        2.47355
              C 2  -- C 26                  -0.17        2.47468
              C 1  -- C 9                   -0.18        2.47570
              C 2  -- C 10                  -0.18        2.47589
              C 24 -- C 32                  -0.18        2.47592
              C 9  -- C 17                  -0.18        2.47647
              C 8  -- C 30                  -0.18        2.47651
              C 18 -- C 26                  -0.17        2.47659
              C 15 -- C 23                  -0.17        2.47679
              C 7  -- C 15                  -0.17        2.47817
              C 1  -- C 7                   -0.17        2.47817
              C 2  -- C 8                   -0.17        2.47871
              C 24 -- C 26                  -0.17        2.47913
              C 17 -- C 19                  -0.18        2.47933
              C 1  -- C 11                  -0.18        2.47937
              C 15 -- C 17                  -0.17        2.47942
              C 22 -- C 24                  -0.18        2.47952
              C 29 -- C 31                  -0.17        2.48624
              C 10 -- C 12                  -0.17        2.48675
              C 13 -- C 23                  -0.17        2.48727
              C 18 -- C 28                  -0.17        2.48740
              C 19 -- C 21                  -0.18        2.49893
              C 20 -- C 22                  -0.18        2.49931
              C 20 -- C 30                  -0.18        2.49960
              C 11 -- C 21                  -0.18        2.49969
              C 21 -- C 31                  -0.17        2.51063
              C 18 -- C 20                  -0.17        2.51173
              C 21 -- C 23                  -0.17        2.51215
              C 10 -- C 20                  -0.17        2.51224
              C 21 -- C 29                  -0.16        2.52792
              C 22 -- C 30                  -0.14        2.52928
              C 20 -- C 28                  -0.16        2.52949
              C 11 -- C 19                  -0.14        2.52962
              C 12 -- C 20                  -0.16        2.53015
              C 13 -- C 21                  -0.16        2.53020
              C 30 -- C 32                  -0.14        2.53766
              C 9  -- C 11                  -0.14        2.53791
              C 22 -- C 32                  -0.14        2.53814
              C 9  -- C 19                  -0.14        2.53917
              C 6  -- C 19                  -0.11        2.82430
              C 9  -- C 16                  -0.11        2.82605
              C 27 -- C 30                  -0.11        2.82684
              C 25 -- C 32                  -0.11        2.82699
              C 11 -- C 14                  -0.11        2.82846
              C 3  -- C 22                  -0.11        2.82900
              C 2  -- C 3                   -0.10        2.84301
              C 6  -- C 7                   -0.10        2.84373
              C 14 -- C 15                  -0.10        2.84389
              C 26 -- C 27                  -0.10        2.84406
              C 28 -- C 29                  -0.11        2.84411
              C 12 -- C 13                  -0.11        2.84417
              C 16 -- C 29                  -0.10        2.84472
              C 12 -- C 25                  -0.10        2.84485
              C 25 -- C 28                  -0.10        2.84678
              C 13 -- C 16                  -0.10        2.84836
              C 26 -- C 31                  -0.10        2.84861
              C 2  -- C 23                  -0.10        2.84929
              C 10 -- C 15                  -0.10        2.84935
              C 14 -- C 27                  -0.10        2.84959
              C 4  -- C 17                  -0.10        2.85070
              C 3  -- C 6                   -0.10        2.85183
              C 4  -- C 5                   -0.10        2.85190
              C 5  -- C 8                   -0.10        2.85224
              C 7  -- C 18                  -0.10        2.85274
              C 1  -- C 4                   -0.10        2.85286
              C 17 -- C 24                  -0.10        2.85369
              C 2  -- C 7                   -0.10        2.85439
              C 1  -- C 8                   -0.10        2.85485
              C 5  -- C 24                  -0.10        2.85496
              C 15 -- C 26                  -0.10        2.85780
              C 18 -- C 23                  -0.10        2.85855
              C 10 -- C 31                  -0.10        2.85902
              C 20 -- C 21                  -0.08        2.86831
              C 29 -- C 32                  -0.09        2.88087
              C 9  -- C 12                  -0.09        2.88202
              C 19 -- C 22                  -0.07        2.88203
              C 11 -- C 30                  -0.07        2.88256
              C 13 -- C 32                  -0.09        2.88273
              C 9  -- C 28                  -0.09        2.88337
              C 30 -- C 31                  -0.08        2.88341
              C 10 -- C 11                  -0.08        2.88405
              C 22 -- C 23                  -0.08        2.88423
              C 18 -- C 19                  -0.08        2.88446
              C 8  -- C 21                  -0.08        2.89065
              C 17 -- C 20                  -0.08        2.89421
              C 21 -- C 24                  -0.08        2.89492
              C 1  -- C 20                  -0.08        2.89519
               H 2 -- C 19                  -0.04        2.90029
               H 1 -- C 30                  -0.04        2.90043
               H 1 -- C 22                  -0.04        2.90084
               H 2 -- C 11                  -0.04        2.90137
               H 1 -- H 2                    0.03        2.91237
               H 2 -- C 31                  -0.03        2.92290
               H 1 -- C 18                  -0.03        2.92461
               H 2 -- C 23                  -0.03        2.92544
               H 1 -- C 10                  -0.03        2.92582
               H 2 -- C 29                  -0.01        2.96714
               H 1 -- C 28                  -0.01        2.96889
               H 1 -- C 12                  -0.01        2.97104
               H 2 -- C 13                  -0.01        2.97106
======================================================================
 

Writing analysis data to 4x4.castep_bin

Writing model to 4x4.check
 
 A BibTeX formatted list of references used in this run has been written to 
 4x4.bib
 
Initialisation time =      2.92 s
Calculation time    =   2982.47 s
Finalisation time   =      1.93 s
Total time          =   2987.31 s
Peak Memory Use     = 1017244 kB
  
Overall parallel efficiency rating: Mediocre (53%)                              
  
Data was distributed by:-
G-vector (16-way); efficiency rating: Mediocre (55%)                            
k-point (8-way); efficiency rating: Excellent (93%)                             
