 +-------------------------------------------------+
 |                                                 |
 |      CCC   AA    SSS  TTTTT  EEEEE  PPPP        |
 |     C     A  A  S       T    E      P   P       |
 |     C     AAAA   SS     T    EEE    PPPP        |
 |     C     A  A     S    T    E      P           |
 |      CCC  A  A  SSS     T    EEEEE  P           |
 |                                                 |
 +-------------------------------------------------+
 |                                                 |
 | Welcome to Academic Release CASTEP version 21.11|          
 | Ab Initio Total Energy Program                  |
 |                                                 |
 | Authors:                                        |
 | M. Segall, M. Probert, C. Pickard, P. Hasnip,   |
 | S. Clark, K. Refson, J. R. Yates, M. Payne      |
 |                                                 |
 | Contributors:                                   |
 | P. Lindan, P. Haynes, J. White, V. Milman,      |
 | N. Govind, M. Gibson, P. Tulip, V. Cocula,      |
 | B. Montanari, D. Quigley, M. Glover,            |
 | L. Bernasconi, A. Perlov, M. Plummer,           |
 | E. McNellis, J. Meyer, J. Gale, D. Jochym       |
 | J. Aarons, B. Walker, R. Gillen, D. Jones       |
 | T. Green, I. J. Bush, C. J. Armstrong,          |
 | E. J. Higgins, E. L. Brown, M. S. McFly,        |
 | J. Wilkins, B-C. Shih, P. J. P. Byrne,          |
 | R. J. Maurer, J. C. Womack, J. Dziedzic,        |
 | A. Bartok-Partay, L. LeBlanc                    |
 |                                                 |
 | Copyright (c) 2000 - 2021                       |
 |                                                 |
 |     Distributed under license from Cambridge    |
 |     Enterprise for academic use only.           |
 |                                                 |
 | Please cite                                     |
 |                                                 |
 |     "First principles methods using CASTEP"     |
 |                                                 |
 |         Zeitschrift fuer Kristallographie       |
 |           220(5-6) pp. 567-570 (2005)           |
 |                                                 |
 | S. J. Clark, M. D. Segall, C. J. Pickard,       |
 | P. J. Hasnip, M. J. Probert, K. Refson,         |
 | M. C. Payne                                     |
 |                                                 |
 |       in all publications arising from          |
 |              your use of CASTEP                 |
 |                                                 |
 +-------------------------------------------------+
 |                                                 |
 |              http://www.castep.org              |
 |                                                 |
 +-------------------------------------------------+
 
 
 
 Compiled for linux_x86_64_cray-XT on Tue, 01 Mar 2022 09:19:15 +0000
 from code version 7d4405a8a+  HEAD  Sat Nov 27 13:38:33 2021 +0000
 Compiler: Cray Fortran 12.0.3; Optimisation: fast
 MATHLIBS: LibSci (LAPACK version 3.6.1)
 FFT Lib : fftw3 version commercial-fftw-3.3.8-sse2-avx-avx2-avx2_128
 Fundamental constants values: CODATA 2014
 
 Run started: Thu, 27 Oct 2022 15:34:16 -0100
 
 Atomic calculation performed for H: 1s1
 
 Converged in 41 iterations to an ae energy of -12.488 eV
 
   ============================================================                
   | Pseudopotential Report - Date of generation 27-10-2022   |                
   ------------------------------------------------------------                
   | Element: H Ionic charge:  1.00 Level of theory: PBE      |                
   | Atomic Solver: Koelling-Harmon                           |                
   |                                                          |                
   |               Reference Electronic Structure             |                
   |         Orbital         Occupation         Energy        |                
   |            1s              1.000           -0.239        |                
   |                                                          |                
   |                 Pseudopotential Definition               |                
   |        Beta     l      e      Rc     scheme   norm       |                
   |          1      0   -0.239   0.599     qc      0         |                
   |          2      0    0.250   0.599     qc      0         |                
   |         loc     1    0.000   0.599     pn      0         |                
   |                                                          |                
   | Augmentation charge Rinner = 0.421                       |                
   | No partial core correction                               |                
   ------------------------------------------------------------                
   | "1|0.6|13|15|17|10(qc=8)"                                |                
   ------------------------------------------------------------                
   |      Author: Chris J. Pickard, Cambridge University      |                
   ============================================================                
 
 Atomic calculation performed for C: 1s2 2s2 2p2
 
 Converged in 54 iterations to an ae energy of -1027.632 eV
 
   ============================================================                
   | Pseudopotential Report - Date of generation 27-10-2022   |                
   ------------------------------------------------------------                
   | Element: C Ionic charge:  4.00 Level of theory: PBE      |                
   | Atomic Solver: Koelling-Harmon                           |                
   |                                                          |                
   |               Reference Electronic Structure             |                
   |         Orbital         Occupation         Energy        |                
   |            2s              2.000           -0.505        |                
   |            2p              2.000           -0.194        |                
   |                                                          |                
   |                 Pseudopotential Definition               |                
   |        Beta     l      e      Rc     scheme   norm       |                
   |          1      0   -0.505   1.201     qc      1         |                
   |         loc     1   -0.194   1.201     qc      1         |                
   |                                                          |                
   | No charge augmentation                                   |                
   | Partial core correction Rc = 0.839                       |                
   ------------------------------------------------------------                
   | "1|1.2|17|20|23|20N:21L(qc=8)"                           |                
   ------------------------------------------------------------                
   |      Author: Chris J. Pickard, Cambridge University      |                
   ============================================================                
 
 Pseudo atomic calculation performed for H 1s1
 
 Converged in 13 iterations to a total energy of -12.4856 eV
 
 Pseudo atomic calculation performed for C 2s2 2p2
 
 Converged in 18 iterations to a total energy of -152.4291 eV
 Calculation parallelised over 128 processes.
 Data is distributed by G-vector(16-way) and k-point(8-way)

 ************************************ Title ************************************
 

 ***************************** General Parameters ******************************
  
 output verbosity                               : normal  (1)
 write checkpoint data to                       : 4x4.check
 type of calculation                            : geometry optimization
 stress calculation                             : off
 density difference calculation                 : off
 electron localisation func (ELF) calculation   : off
 Hirshfeld analysis                             : off
 polarisation (Berry phase) analysis            : off
 molecular orbital projected DOS                : off
 deltaSCF calculation                           : off
 unlimited duration calculation
 timing information                             : on
 memory usage estimate                          : on
 write extra output files                       : on
 write final potential to formatted file        : off
 write final density to formatted file          : off
 write structure in CELL formatted file         : on
 write BibTeX reference list                    : on
 write OTFG pseudopotential files               : on
 write electrostatic potential file             : on
 write bands file                               : on
 checkpoint writing                             : both castep_bin and check files
  
 output         length unit                     : A
 output           mass unit                     : amu
 output           time unit                     : ps
 output         charge unit                     : e
 output           spin unit                     : hbar/2
 output         energy unit                     : eV
 output          force unit                     : eV/A
 output       velocity unit                     : A/ps
 output       pressure unit                     : GPa
 output     inv_length unit                     : 1/A
 output      frequency unit                     : cm-1
 output force constant unit                     : eV/A**2
 output         volume unit                     : A**3
 output   IR intensity unit                     : (D/A)**2/amu
 output         dipole unit                     : D
 output         efield unit                     : eV/A/e
 output        entropy unit                     : J/mol/K
 output    efield chi2 unit                     : pm/V
  
 wavefunctions paging                           : none
 random number generator seed                   : randomised (153416936)
 data distribution                              : optimal for this architecture
 optimization strategy                          : maximize speed(+++)

 *********************** Exchange-Correlation Parameters ***********************
  
 using functional                               : Perdew Burke Ernzerhof
 relativistic treatment                         : Koelling-Harmon
 DFT+D: Semi-empirical dispersion correction    : on
 SEDC with                                      : MBD@rsSCS method

 ************************* Pseudopotential Parameters **************************
  
 pseudopotential representation                 : reciprocal space
 <beta|phi> representation                      : reciprocal space
 spin-orbit coupling                            : off

 **************************** Basis Set Parameters *****************************
  
 plane wave basis set cut-off                   :   800.0000   eV
 size of standard grid                          :     1.7500
 size of   fine   gmax                          :    25.3584   1/A
 finite basis set correction                    : none

 **************************** Electronic Parameters ****************************
  
 number of  electrons                           :  130.0    
 net charge of system                           :  0.000    
 treating system as non-spin-polarized
 number of bands                                :         98

 ********************* Electronic Minimization Parameters **********************
  
 Method: Treating system as metallic with density mixing treatment of electrons,
         and number of  SD  steps               :          1
         and number of  CG  steps               :          4
  
 total energy / atom convergence tol.           : 0.1000E-05   eV
 eigen-energy convergence tolerance             : 0.3469E-06   eV
 max force / atom convergence tol.              : ignored
 convergence tolerance window                   :          3   cycles
 max. number of SCF cycles                      :        100
 number of fixed-spin iterations                :         10
 smearing scheme                                : Gaussian
 smearing width                                 : 0.2000       eV
 Fermi energy convergence tolerance             : 0.2721E-13   eV
 periodic dipole correction                     : NONE

 ************************** Density Mixing Parameters **************************
  
 density-mixing scheme                          : Pulay
 max. length of mixing history                  :         20
 charge density mixing amplitude                : 0.8000    
 cut-off energy for mixing                      :  800.0       eV

 *********************** Population Analysis Parameters ************************
  
 Population analysis with cutoff                :  3.000       A
 Population analysis output                     : summary and pdos components

 ********************** Geometry Optimization Parameters ***********************
  
 optimization method                            : LBFGS
 max. no. of LBFGS updates                      : unbounded
 variable cell method                           : fixed basis quality
 max. number of steps                           :        100
 estimated bulk modulus                         :  500.0       GPa
 estimated <frequency>                          :  1668.       cm-1
 geom line minimiser                            : on
 with line minimiser tolerance                  :     0.4000
 total energy convergence tolerance             : 0.2000E-04   eV/atom
        max ionic |force| tolerance             : 0.1000E-01   eV/A
 max ionic |displacement| tolerance             : 0.1000E-02   A
   max |stress component| tolerance             : 0.1000       GPa
 convergence tolerance window                   :          2   steps
 backup results every                           :          5   steps
 write geom trajectory file                     : on

 *******************************************************************************
  
 
                           -------------------------------
                                      Unit Cell
                           -------------------------------
        Real Lattice(A)                      Reciprocal Lattice(1/A)
     9.8800000     0.0000000     0.0000000        0.635949930   0.367165863   0.000000000
    -4.9400000     8.5563310     0.0000000        0.000000000   0.734331726   0.000000000
     0.0000000     0.0000000    20.0339000        0.000000000   0.000000000   0.313627666
 
                       Lattice parameters(A)       Cell Angles
                    a =      9.880000          alpha =   90.000000
                    b =      9.880000          beta  =   90.000000
                    c =     20.033900          gamma =  120.000000
 
                       Current cell volume =          1693.596795       A**3
                                   density =             0.228129   AMU/A**3
                                           =             0.378817     g/cm^3
 
                           -------------------------------
                                     Cell Contents
                           -------------------------------
                         Total number of ions in cell =   34
                      Total number of species in cell =    2
                        Max number of any one species =   32
 
            xxxxxxxxxxxxxxxxxxxxxxxxxxxxxxxxxxxxxxxxxxxxxxxxxxxxxxxxxxxx
            x  Element    Atom        Fractional coordinates of atoms  x
            x            Number           u          v          w      x
            x----------------------------------------------------------x
            x  H            1         0.429156   0.362064   0.639873   x 
            x  H            2         0.458496   0.430638   0.639950   x 
            x  C            1         0.166476   0.083155   0.500002   x 
            x  C            2        -0.000100  -0.000140   0.500002   x 
            x  C            3         0.166447   0.333239   0.500002   x 
            x  C            4        -0.000173   0.249815   0.500002   x 
            x  C            5         0.166520   0.583404   0.500002   x 
            x  C            6        -0.000108   0.499946   0.500002   x 
            x  C            7         0.166543   0.833430   0.500002   x 
            x  C            8        -0.000049   0.750064   0.500002   x 
            x  C            9         0.416557   0.083155   0.500002   x 
            x  C           10         0.249870  -0.000199   0.500002   x 
            x  C           11         0.416592   0.333285   0.500002   x 
            x  C           12         0.249853   0.249827   0.500002   x 
            x  C           13         0.416666   0.583474   0.500002   x 
            x  C           14         0.249889   0.499981   0.500002   x 
            x  C           15         0.416657   0.833476   0.500002   x 
            x  C           16         0.249960   0.750123   0.500002   x 
            x  C           17         0.666714   0.083225   0.500002   x 
            x  C           18         0.500005  -0.000152   0.500002   x 
            x  C           19         0.666769   0.333356   0.500002   x 
            x  C           20         0.500012   0.249862   0.500002   x 
            x  C           21         0.666815   0.583509   0.500002   x 
            x  C           22         0.500066   0.500051   0.500002   x 
            x  C           23         0.666788   0.833535   0.500002   x 
            x  C           24         0.500117   0.750193   0.500002   x 
            x  C           25         0.916717   0.083272   0.500002   x 
            x  C           26         0.750125  -0.000093   0.500002   x 
            x  C           27         0.916770   0.333379   0.500002   x 
            x  C           28         0.750152   0.249920   0.500002   x 
            x  C           29         0.916836   0.583509   0.500002   x 
            x  C           30         0.750215   0.500086   0.500002   x 
            x  C           31         0.916769   0.833476   0.500002   x 
            x  C           32         0.750202   0.750181   0.500002   x 
            xxxxxxxxxxxxxxxxxxxxxxxxxxxxxxxxxxxxxxxxxxxxxxxxxxxxxxxxxxxx
 
 
                         No user defined ionic velocities
 
                           -------------------------------
                                   Details of Species
                           -------------------------------
 
                               Mass of species in AMU
                                    H    1.0079400
                                    C   12.0107000
 
                          Electric Quadrupole Moment (Barn)
                                    H    0.0028600 Isotope  2
                                    C    0.0332700 Isotope 11
 
                          Files used for pseudopotentials:
                                    H 1|0.6|13|15|17|10(qc=8)
                                    C 1|1.2|17|20|23|20N:21L(qc=8)
 
                           -------------------------------
                              k-Points For BZ Sampling
                           -------------------------------
                       MP grid size for SCF calculation is  4  4  1
                            with an offset of   0.000  0.000  0.000
                       Number of kpoints used =   8
 
                           -------------------------------
                               Symmetry and Constraints
                           -------------------------------
 
                      Maximum deviation from symmetry =  0.00000         ANG
 
                      Number of symmetry operations   = 1
         There are no ionic constraints specified or generated for this cell
                      Point group of crystal =     1: C1, 1, 1
                      Space group of crystal =     1: P1, P 1
 
             Set iprint > 1 for details on symmetry rotations/translations
 
                         Centre of mass is NOT constrained
 
                         Number of cell constraints= 6
                         Cell constraints are:  0 0 0 0 0 0
 
                         External pressure/stress (GPa)
                          0.00000   0.00000   0.00000
                                    0.00000   0.00000
                                              0.00000
 
                                --------------------
                                  DFT-D parameters
                                --------------------
 
                          Dispersion-correction scheme : MBD*      
                        Parameter sR :   0.830000 (default)
 
        xxxxxxxxxxxxxxxxxxxxxxxxxxxxxxxxxxxxxxxxxxxxxxxxxxxxxxxxxxxxxxxxxxxx
        x              Atomic DFT-D parameters                             x
        x  Species      C6            alpha        R0                      x
        x               eV A^6        A^3          A                       x
        x------------------------------------------------------------------x
        x  H             3.8839       0.6668       1.6404   (default)      x
        x  C            27.8448       1.7782       1.8997   (default)      x
        xxxxxxxxxxxxxxxxxxxxxxxxxxxxxxxxxxxxxxxxxxxxxxxxxxxxxxxxxxxxxxxxxxxx
 
  
+---------------- MEMORY AND SCRATCH DISK ESTIMATES PER PROCESS --------------+
|                                                     Memory          Disk    |
| Baseline code, static data and system overhead      770.0 MB         0.0 MB |
| BLAS internal memory storage                          0.0 MB         0.0 MB |
| Model and support data                               37.8 MB         0.0 MB |
| Electronic energy minimisation requirements          62.0 MB         0.0 MB |
| Force calculation requirements                       12.6 MB         0.0 MB |
|                                               ----------------------------- |
| Approx. total storage required per process          869.7 MB         0.0 MB |
|                                                                             |
| Requirements will fluctuate during execution and may exceed these estimates |
+-----------------------------------------------------------------------------+
Calculating approximate eigenstates for fixed initial Hamiltonian
Cut-off for approx. calculation is  119.774 eV
Improving approx. states at cut-off of  462.594 eV
Resetting cut-off to  800.000 eV
Calculating total energy with cut-off of  800.000 eV.
------------------------------------------------------------------------ <-- SCF
SCF loop      Energy           Fermi           Energy gain       Timer   <-- SCF
                               energy          per atom          (sec)   <-- SCF
------------------------------------------------------------------------ <-- SCF
Initial  -4.74878467E+003  0.00000000E+000                        10.34  <-- SCF
      1  -5.21739723E+003 -5.67553864E+000   1.37827225E+001      16.07  <-- SCF
      2  -5.21761176E+003 -5.67648250E+000   6.30973911E-003      21.86  <-- SCF
      3  -5.20411221E+003 -4.38039193E+000  -3.97045680E-001      28.00  <-- SCF
      4  -5.20334912E+003 -3.89244027E+000  -2.24439141E-002      34.23  <-- SCF
      5  -5.20311066E+003 -3.56394586E+000  -7.01340965E-003      40.79  <-- SCF
      6  -5.20300408E+003 -3.23444429E+000  -3.13466553E-003      46.99  <-- SCF
      7  -5.20295473E+003 -3.08247459E+000  -1.45159077E-003      53.07  <-- SCF
      8  -5.20293935E+003 -2.91407868E+000  -4.52301049E-004      59.19  <-- SCF
      9  -5.20295488E+003 -2.81149079E+000   4.56921192E-004      65.17  <-- SCF
     10  -5.20296458E+003 -2.72805435E+000   2.85079963E-004      70.79  <-- SCF
     11  -5.20296422E+003 -2.63827190E+000  -1.05698475E-005      76.22  <-- SCF
     12  -5.20296242E+003 -2.57024904E+000  -5.29750057E-005      81.59  <-- SCF
     13  -5.20296116E+003 -2.50395440E+000  -3.69204618E-005      86.90  <-- SCF
     14  -5.20296470E+003 -2.43971836E+000   1.04044587E-004      92.03  <-- SCF
     15  -5.20297236E+003 -2.41168821E+000   2.25254421E-004      97.02  <-- SCF
     16  -5.20297585E+003 -2.40988852E+000   1.02601176E-004     101.78  <-- SCF
     17  -5.20297661E+003 -2.40936544E+000   2.25529019E-005     106.54  <-- SCF
     18  -5.20297678E+003 -2.40905093E+000   4.91344680E-006     111.15  <-- SCF
     19  -5.20297681E+003 -2.40910962E+000   8.85940510E-007     115.96  <-- SCF
     20  -5.20297683E+003 -2.40912303E+000   6.91710746E-007     120.81  <-- SCF
     21  -5.20297684E+003 -2.40911736E+000   2.45241542E-007     125.75  <-- SCF
------------------------------------------------------------------------ <-- SCF
 
Final energy, E             =  -5202.972974288     eV
Final free energy (E-TS)    =  -5202.976841193     eV
(energies not corrected for finite basis set)
 
NB est. 0K energy (E-0.5TS)      =  -5202.974907741     eV
 
 WARNING: Your unit cell might be too small to get accurate results for van der Waals
(SEDC) Total Energy Correction : -0.273947E+01 eV

Dispersion corrected final energy*, Ecor          =  -5205.712447385     eV
Dispersion corrected final free energy* (Ecor-TS) =  -5205.716314290     eV
NB dispersion corrected est. 0K energy* (Ecor-0.5TS) =  -5205.714380837     eV

Writing analysis data to 4x4.castep_bin

Writing model to 4x4.check
 
+---------------- MEMORY AND SCRATCH DISK ESTIMATES PER PROCESS --------------+
|                                                     Memory          Disk    |
| Model and support data                               45.7 MB         0.0 MB |
| Electronic energy minimisation requirements          62.0 MB         0.0 MB |
| Geometry minimisation requirements                   71.3 MB         0.0 MB |
|                                               ----------------------------- |
| Approx. total storage required per process          179.0 MB         0.0 MB |
|                                                                             |
| Requirements will fluctuate during execution and may exceed these estimates |
+-----------------------------------------------------------------------------+
 
 
 ************************************** Forces **************************************
 *                                                                                  *
 *                           Cartesian components (eV/A)                            *
 * -------------------------------------------------------------------------------- *
 *                         x                    y                    z              *
 *                                                                                  *
 * H               1      0.80969             -9.75195              0.08416         *
 * H               2     -0.81345              9.75552              0.13608         *
 * C               1     -0.00634             -0.00400              0.00137         *
 * C               2      0.00326             -0.00470              0.00011         *
 * C               3     -0.00462              0.00217              0.00365         *
 * C               4      0.00171             -0.00071             -0.00037         *
 * C               5     -0.00986              0.00839             -0.00051         *
 * C               6     -0.00112              0.00063             -0.00027         *
 * C               7     -0.00939              0.00102             -0.00002         *
 * C               8     -0.00398             -0.00017             -0.00035         *
 * C               9      0.00081             -0.01011              0.00134         *
 * C              10      0.00374             -0.00121              0.00044         *
 * C              11      0.00015              0.00093             -0.11046         *
 * C              12      0.01468              0.00770             -0.01812         *
 * C              13      0.00257             -0.00475             -0.00582         *
 * C              14     -0.00376             -0.00158              0.00469         *
 * C              15     -0.00928              0.00845             -0.00017         *
 * C              16     -0.00479             -0.00360             -0.00048         *
 * C              17      0.00469             -0.00683             -0.00053         *
 * C              18      0.00882             -0.00213             -0.00004         *
 * C              19      0.01258             -0.00302              0.00389         *
 * C              20     -0.01596              0.00967             -0.01566         *
 * C              21     -0.01036             -0.00654             -0.00546         *
 * C              22      0.00750             -0.00901             -0.08123         *
 * C              23      0.00480              0.00120             -0.00058         *
 * C              24     -0.00014              0.00303              0.00077         *
 * C              25      0.00471             -0.00375             -0.00043         *
 * C              26      0.00827             -0.00029              0.00006         *
 * C              27      0.00336              0.00084             -0.00022         *
 * C              28      0.00072             -0.00045             -0.00040         *
 * C              29     -0.00129              0.00425             -0.00051         *
 * C              30      0.00553              0.00057              0.00422         *
 * C              31     -0.00135              0.00510             -0.00002         *
 * C              32     -0.00190              0.00535              0.00090         *
 *                                                                                  *
 ************************************************************************************
 LBFGS: finished iteration     0 with enthalpy= -5.20571631E+003 eV
  
 +-----------+-----------------+-----------------+------------+-----+ <-- LBFGS
 | Parameter |      value      |    tolerance    |    units   | OK? | <-- LBFGS
 +-----------+-----------------+-----------------+------------+-----+ <-- LBFGS
 |  dE/ion   |   0.000000E+000 |   2.000000E-005 |         eV | No  | <-- LBFGS
 |  |F|max   |   9.790316E+000 |   1.000000E-002 |       eV/A | No  | <-- LBFGS
 |  |dR|max  |   0.000000E+000 |   1.000000E-003 |          A | No  | <-- LBFGS
 +-----------+-----------------+-----------------+------------+-----+ <-- LBFGS
  

================================================================================
 Starting LBFGS iteration          1 ...
================================================================================
  
 +------------+-------------+-------------+-----------------+ <-- min LBFGS
 |    Step    |   lambda    |   F.delta'  |    enthalpy     | <-- min LBFGS
 +------------+-------------+-------------+-----------------+ <-- min LBFGS
 |  previous  |    0.000000 |    4.016057 |    -5205.716314 | <-- min LBFGS
 +------------+-------------+-------------+-----------------+ <-- min LBFGS
  

--------------------------------------------------------------------------------
 LBFGS: starting iteration         1 with trial guess (lambda=  1.000000)
--------------------------------------------------------------------------------
 
                           -------------------------------
                                     Cell Contents
                           -------------------------------
 
            xxxxxxxxxxxxxxxxxxxxxxxxxxxxxxxxxxxxxxxxxxxxxxxxxxxxxxxxxxxxxxxxx
            x  Element         Atom        Fractional coordinates of atoms  x
            x                 Number           u          v          w      x
            x---------------------------------------------------------------x
            x  H                 1         0.424958   0.352259   0.639909   x
            x  H                 2         0.462693   0.440447   0.640008   x
            x  C                 1         0.166469   0.083151   0.500003   x
            x  C                 2        -0.000100  -0.000145   0.500003   x
            x  C                 3         0.166444   0.333241   0.500004   x
            x  C                 4        -0.000172   0.249814   0.500002   x
            x  C                 5         0.166516   0.583413   0.500002   x
            x  C                 6        -0.000109   0.499946   0.500002   x
            x  C                 7         0.166535   0.833431   0.500002   x
            x  C                 8        -0.000052   0.750064   0.500002   x
            x  C                 9         0.416553   0.083145   0.500003   x
            x  C                10         0.249873  -0.000200   0.500003   x
            x  C                11         0.416593   0.333286   0.499955   x
            x  C                12         0.249869   0.249834   0.499995   x
            x  C                13         0.416666   0.583470   0.500000   x
            x  C                14         0.249885   0.499979   0.500005   x
            x  C                15         0.416653   0.833485   0.500002   x
            x  C                16         0.249954   0.750119   0.500002   x
            x  C                17         0.666714   0.083218   0.500002   x
            x  C                18         0.500012  -0.000154   0.500002   x
            x  C                19         0.666778   0.333352   0.500004   x
            x  C                20         0.500003   0.249871   0.499996   x
            x  C                21         0.666803   0.583503   0.500000   x
            x  C                22         0.500068   0.500042   0.499968   x
            x  C                23         0.666792   0.833536   0.500002   x
            x  C                24         0.500118   0.750196   0.500003   x
            x  C                25         0.916719   0.083268   0.500002   x
            x  C                26         0.750132  -0.000094   0.500003   x
            x  C                27         0.916774   0.333380   0.500002   x
            x  C                28         0.750153   0.249920   0.500002   x
            x  C                29         0.916837   0.583514   0.500002   x
            x  C                30         0.750220   0.500086   0.500004   x
            x  C                31         0.916770   0.833482   0.500002   x
            x  C                32         0.750203   0.750187   0.500003   x
            xxxxxxxxxxxxxxxxxxxxxxxxxxxxxxxxxxxxxxxxxxxxxxxxxxxxxxxxxxxxxxxxx
 
 
------------------------------------------------------------------------ <-- SCF
SCF loop      Energy           Fermi           Energy gain       Timer   <-- SCF
                               energy          per atom          (sec)   <-- SCF
------------------------------------------------------------------------ <-- SCF
Initial  -5.20185330E+003  0.00000000E+000                       132.10  <-- SCF
      1  -5.20367449E+003 -2.40916614E+000   5.35645620E-002     137.39  <-- SCF
      2  -5.20368079E+003 -2.40915918E+000   1.85385039E-004     142.90  <-- SCF
      3  -5.20362603E+003 -2.40774080E+000  -1.61056598E-003     148.20  <-- SCF
      4  -5.20362690E+003 -2.40699151E+000   2.55681548E-005     153.63  <-- SCF
      5  -5.20362726E+003 -2.40661220E+000   1.03596226E-005     158.81  <-- SCF
      6  -5.20362737E+003 -2.40653760E+000   3.33659255E-006     163.86  <-- SCF
      7  -5.20362741E+003 -2.40664115E+000   1.26372597E-006     168.82  <-- SCF
      8  -5.20362744E+003 -2.40695054E+000   8.70984364E-007     173.77  <-- SCF
      9  -5.20362746E+003 -2.40730515E+000   5.28511101E-007     178.67  <-- SCF
     10  -5.20362747E+003 -2.40772515E+000   3.23758741E-007     183.53  <-- SCF
     11  -5.20362747E+003 -2.40825130E+000  -1.96932526E-008     188.40  <-- SCF
------------------------------------------------------------------------ <-- SCF
 
Final energy, E             =  -5203.623597354     eV
Final free energy (E-TS)    =  -5203.627470504     eV
(energies not corrected for finite basis set)
 
NB est. 0K energy (E-0.5TS)      =  -5203.625533929     eV
 
(SEDC) Total Energy Correction : -0.274986E+01 eV

Dispersion corrected final energy*, Ecor          =  -5206.373454336     eV
Dispersion corrected final free energy* (Ecor-TS) =  -5206.377327486     eV
NB dispersion corrected est. 0K energy* (Ecor-0.5TS) =  -5206.375390911     eV
 
 ************************************** Forces **************************************
 *                                                                                  *
 *                           Cartesian components (eV/A)                            *
 * -------------------------------------------------------------------------------- *
 *                         x                    y                    z              *
 *                                                                                  *
 * H               1     -0.02123              0.23148              0.12227         *
 * H               2      0.01816             -0.22819              0.12154         *
 * C               1     -0.00055              0.00016              0.00086         *
 * C               2      0.00115             -0.00236              0.00079         *
 * C               3     -0.00093              0.00187              0.00328         *
 * C               4      0.00205             -0.00088              0.00022         *
 * C               5     -0.00526              0.00328             -0.00006         *
 * C               6     -0.00219              0.00099             -0.00021         *
 * C               7     -0.00635             -0.00099             -0.00011         *
 * C               8     -0.00418              0.00149             -0.00047         *
 * C               9      0.00118             -0.00276              0.00112         *
 * C              10      0.00014             -0.00230              0.00011         *
 * C              11      0.00071              0.00143             -0.11398         *
 * C              12      0.00725              0.00434             -0.02372         *
 * C              13      0.00391             -0.00414             -0.00927         *
 * C              14     -0.00597             -0.00056              0.00496         *
 * C              15     -0.00515              0.00281              0.00041         *
 * C              16     -0.00649              0.00145             -0.00063         *
 * C              17      0.00590             -0.00400             -0.00070         *
 * C              18      0.00540             -0.00077              0.00063         *
 * C              19      0.00558             -0.00043              0.00375         *
 * C              20     -0.00771              0.00377             -0.02115         *
 * C              21     -0.00531             -0.00434             -0.00922         *
 * C              22      0.00264             -0.00642             -0.08573         *
 * C              23      0.00228              0.00105             -0.00101         *
 * C              24     -0.00142              0.00287              0.00096         *
 * C              25      0.00446             -0.00208             -0.00056         *
 * C              26      0.00655              0.00027             -0.00021         *
 * C              27      0.00231              0.00077             -0.00003         *
 * C              28      0.00284             -0.00220              0.00017         *
 * C              29     -0.00147              0.00202             -0.00008         *
 * C              30      0.00403             -0.00098              0.00444         *
 * C              31     -0.00124              0.00149              0.00052         *
 * C              32     -0.00111              0.00187              0.00110         *
 *                                                                                  *
 ************************************************************************************
  
 +------------+-------------+-------------+-----------------+ <-- min LBFGS
 |    Step    |   lambda    |   F.delta'  |    enthalpy     | <-- min LBFGS
 +------------+-------------+-------------+-----------------+ <-- min LBFGS
 |  previous  |    0.000000 |    4.016057 |    -5205.716314 | <-- min LBFGS
 | trial step |    1.000000 |   -0.093614 |    -5206.377327 | <-- min LBFGS
 +------------+-------------+-------------+-----------------+ <-- min LBFGS
  
 LBFGS: finished iteration     1 with enthalpy= -5.20637733E+003 eV
  
 +-----------+-----------------+-----------------+------------+-----+ <-- LBFGS
 | Parameter |      value      |    tolerance    |    units   | OK? | <-- LBFGS
 +-----------+-----------------+-----------------+------------+-----+ <-- LBFGS
 |  dE/ion   |   1.944156E-002 |   2.000000E-005 |         eV | No  | <-- LBFGS
 |  |F|max   |   2.626491E-001 |   1.000000E-002 |       eV/A | No  | <-- LBFGS
 |  |dR|max  |   8.422615E-002 |   1.000000E-003 |          A | No  | <-- LBFGS
 +-----------+-----------------+-----------------+------------+-----+ <-- LBFGS
  

================================================================================
 Starting LBFGS iteration          2 ...
================================================================================
  
 +------------+-------------+-------------+-----------------+ <-- min LBFGS
 |    Step    |   lambda    |   F.delta'  |    enthalpy     | <-- min LBFGS
 +------------+-------------+-------------+-----------------+ <-- min LBFGS
 |  previous  |    0.000000 |    0.136212 |    -5206.377327 | <-- min LBFGS
 +------------+-------------+-------------+-----------------+ <-- min LBFGS
  

--------------------------------------------------------------------------------
 LBFGS: starting iteration         2 with trial guess (lambda=  1.000000)
--------------------------------------------------------------------------------
 
                           -------------------------------
                                     Cell Contents
                           -------------------------------
 
            xxxxxxxxxxxxxxxxxxxxxxxxxxxxxxxxxxxxxxxxxxxxxxxxxxxxxxxxxxxxxxxxx
            x  Element         Atom        Fractional coordinates of atoms  x
            x                 Number           u          v          w      x
            x---------------------------------------------------------------x
            x  H                 1         0.425053   0.352484   0.639960   x
            x  H                 2         0.462597   0.440225   0.640059   x
            x  C                 1         0.166468   0.083151   0.500003   x
            x  C                 2        -0.000100  -0.000147   0.500003   x
            x  C                 3         0.166444   0.333243   0.500005   x
            x  C                 4        -0.000171   0.249813   0.500002   x
            x  C                 5         0.166513   0.583416   0.500002   x
            x  C                 6        -0.000110   0.499947   0.500002   x
            x  C                 7         0.166529   0.833430   0.500002   x
            x  C                 8        -0.000055   0.750066   0.500002   x
            x  C                 9         0.416552   0.083142   0.500004   x
            x  C                10         0.249872  -0.000202   0.500003   x
            x  C                11         0.416594   0.333288   0.499907   x
            x  C                12         0.249878   0.249839   0.499985   x
            x  C                13         0.416667   0.583466   0.499996   x
            x  C                14         0.249880   0.499979   0.500007   x
            x  C                15         0.416650   0.833488   0.500003   x
            x  C                16         0.249949   0.750121   0.500002   x
            x  C                17         0.666717   0.083214   0.500002   x
            x  C                18         0.500016  -0.000155   0.500003   x
            x  C                19         0.666783   0.333352   0.500006   x
            x  C                20         0.499998   0.249875   0.499987   x
            x  C                21         0.666796   0.583499   0.499996   x
            x  C                22         0.500067   0.500035   0.499932   x
            x  C                23         0.666795   0.833537   0.500002   x
            x  C                24         0.500118   0.750199   0.500003   x
            x  C                25         0.916722   0.083266   0.500002   x
            x  C                26         0.750138  -0.000094   0.500002   x
            x  C                27         0.916776   0.333380   0.500002   x
            x  C                28         0.750154   0.249918   0.500002   x
            x  C                29         0.916836   0.583516   0.500002   x
            x  C                30         0.750223   0.500085   0.500006   x
            x  C                31         0.916770   0.833483   0.500003   x
            x  C                32         0.750203   0.750189   0.500003   x
            xxxxxxxxxxxxxxxxxxxxxxxxxxxxxxxxxxxxxxxxxxxxxxxxxxxxxxxxxxxxxxxxx
 
 
------------------------------------------------------------------------ <-- SCF
SCF loop      Energy           Fermi           Energy gain       Timer   <-- SCF
                               energy          per atom          (sec)   <-- SCF
------------------------------------------------------------------------ <-- SCF
Initial  -5.20365522E+003  0.00000000E+000                       192.76  <-- SCF
      1  -5.20362853E+003 -2.40894313E+000  -7.85212614E-004     198.30  <-- SCF
      2  -5.20362853E+003 -2.40894322E+000   1.35070665E-007     203.27  <-- SCF
      3  -5.20362851E+003 -2.40901649E+000  -5.05345058E-007     207.92  <-- SCF
      4  -5.20362852E+003 -2.40909344E+000   1.51051057E-007     212.71  <-- SCF
------------------------------------------------------------------------ <-- SCF
 
Final energy, E             =  -5203.624646547     eV
Final free energy (E-TS)    =  -5203.628518844     eV
(energies not corrected for finite basis set)
 
NB est. 0K energy (E-0.5TS)      =  -5203.626582696     eV
 
(SEDC) Total Energy Correction : -0.274957E+01 eV

Dispersion corrected final energy*, Ecor          =  -5206.374219142     eV
Dispersion corrected final free energy* (Ecor-TS) =  -5206.378091439     eV
NB dispersion corrected est. 0K energy* (Ecor-0.5TS) =  -5206.376155291     eV
 
 ************************************** Forces **************************************
 *                                                                                  *
 *                           Cartesian components (eV/A)                            *
 * -------------------------------------------------------------------------------- *
 *                         x                    y                    z              *
 *                                                                                  *
 * H               1     -0.01063              0.10413              0.12127         *
 * H               2      0.00753             -0.10082              0.12127         *
 * C               1      0.00094              0.00090              0.00005         *
 * C               2      0.00142             -0.00093              0.00135         *
 * C               3      0.00025              0.00104              0.00194         *
 * C               4      0.00202             -0.00086              0.00083         *
 * C               5     -0.00427              0.00246              0.00058         *
 * C               6     -0.00200              0.00114             -0.00009         *
 * C               7     -0.00517             -0.00052             -0.00013         *
 * C               8     -0.00375              0.00090             -0.00039         *
 * C               9      0.00080             -0.00081              0.00041         *
 * C              10     -0.00028             -0.00150              0.00007         *
 * C              11      0.00074              0.00038             -0.10519         *
 * C              12      0.00292              0.00225             -0.02636         *
 * C              13      0.00098             -0.00218             -0.01218         *
 * C              14     -0.00350              0.00077              0.00398         *
 * C              15     -0.00356              0.00116              0.00097         *
 * C              16     -0.00559              0.00165             -0.00053         *
 * C              17      0.00548             -0.00259             -0.00062         *
 * C              18      0.00351             -0.00009              0.00122         *
 * C              19      0.00267             -0.00103              0.00247         *
 * C              20     -0.00211              0.00105             -0.02407         *
 * C              21     -0.00157             -0.00257             -0.01217         *
 * C              22      0.00109             -0.00330             -0.08098         *
 * C              23      0.00113              0.00096             -0.00091         *
 * C              24     -0.00100              0.00083              0.00095         *
 * C              25      0.00383             -0.00102             -0.00051         *
 * C              26      0.00544             -0.00028             -0.00045         *
 * C              27      0.00181              0.00013              0.00022         *
 * C              28      0.00313             -0.00233              0.00081         *
 * C              29     -0.00121              0.00166              0.00051         *
 * C              30      0.00169             -0.00065              0.00354         *
 * C              31     -0.00148              0.00044              0.00109         *
 * C              32     -0.00125             -0.00035              0.00107         *
 *                                                                                  *
 ************************************************************************************
  
 +------------+-------------+-------------+-----------------+ <-- min LBFGS
 |    Step    |   lambda    |   F.delta'  |    enthalpy     | <-- min LBFGS
 +------------+-------------+-------------+-----------------+ <-- min LBFGS
 |  previous  |    0.000000 |    0.136212 |    -5206.377327 | <-- min LBFGS
 | trial step |    1.000000 |    0.084271 |    -5206.378091 | <-- min LBFGS
 +------------+-------------+-------------+-----------------+ <-- min LBFGS
  

--------------------------------------------------------------------------------
 LBFGS: improving iteration         2 with line minimization (lambda=  2.622437)
--------------------------------------------------------------------------------
 
                           -------------------------------
                                     Cell Contents
                           -------------------------------
 
            xxxxxxxxxxxxxxxxxxxxxxxxxxxxxxxxxxxxxxxxxxxxxxxxxxxxxxxxxxxxxxxxx
            x  Element         Atom        Fractional coordinates of atoms  x
            x                 Number           u          v          w      x
            x---------------------------------------------------------------x
            x  H                 1         0.425206   0.352848   0.640043   x
            x  H                 2         0.462442   0.439866   0.640142   x
            x  C                 1         0.166468   0.083151   0.500004   x
            x  C                 2        -0.000100  -0.000151   0.500003   x
            x  C                 3         0.166445   0.333246   0.500008   x
            x  C                 4        -0.000169   0.249812   0.500003   x
            x  C                 5         0.166508   0.583421   0.500002   x
            x  C                 6        -0.000112   0.499949   0.500002   x
            x  C                 7         0.166520   0.833428   0.500002   x
            x  C                 8        -0.000060   0.750068   0.500002   x
            x  C                 9         0.416552   0.083138   0.500004   x
            x  C                10         0.249870  -0.000206   0.500003   x
            x  C                11         0.416596   0.333290   0.499830   x
            x  C                12         0.249891   0.249846   0.499969   x
            x  C                13         0.416670   0.583459   0.499990   x
            x  C                14         0.249871   0.499978   0.500010   x
            x  C                15         0.416646   0.833492   0.500003   x
            x  C                16         0.249942   0.750123   0.500002   x
            x  C                17         0.666722   0.083208   0.500001   x
            x  C                18         0.500023  -0.000156   0.500003   x
            x  C                19         0.666790   0.333351   0.500008   x
            x  C                20         0.499990   0.249881   0.499972   x
            x  C                21         0.666786   0.583492   0.499990   x
            x  C                22         0.500066   0.500025   0.499873   x
            x  C                23         0.666799   0.833539   0.500001   x
            x  C                24         0.500119   0.750203   0.500004   x
            x  C                25         0.916726   0.083263   0.500002   x
            x  C                26         0.750147  -0.000093   0.500002   x
            x  C                27         0.916780   0.333382   0.500002   x
            x  C                28         0.750156   0.249914   0.500003   x
            x  C                29         0.916836   0.583519   0.500002   x
            x  C                30         0.750228   0.500084   0.500009   x
            x  C                31         0.916769   0.833485   0.500003   x
            x  C                32         0.750203   0.750192   0.500004   x
            xxxxxxxxxxxxxxxxxxxxxxxxxxxxxxxxxxxxxxxxxxxxxxxxxxxxxxxxxxxxxxxxx
 
 
------------------------------------------------------------------------ <-- SCF
SCF loop      Energy           Fermi           Energy gain       Timer   <-- SCF
                               energy          per atom          (sec)   <-- SCF
------------------------------------------------------------------------ <-- SCF
Initial  -5.20366628E+003  0.00000000E+000                       217.05  <-- SCF
      1  -5.20362917E+003 -2.40914279E+000  -1.09145276E-003     222.35  <-- SCF
      2  -5.20362918E+003 -2.40914305E+000   3.95327768E-007     227.11  <-- SCF
      3  -5.20362912E+003 -2.40923208E+000  -1.88260617E-006     232.02  <-- SCF
      4  -5.20362912E+003 -2.40931332E+000   1.52156010E-007     236.72  <-- SCF
      5  -5.20362912E+003 -2.40938155E+000   4.06984773E-008     241.30  <-- SCF
------------------------------------------------------------------------ <-- SCF
 
Final energy, E             =  -5203.625251231     eV
Final free energy (E-TS)    =  -5203.629122157     eV
(energies not corrected for finite basis set)
 
NB est. 0K energy (E-0.5TS)      =  -5203.627186694     eV
 
(SEDC) Total Energy Correction : -0.274908E+01 eV

Dispersion corrected final energy*, Ecor          =  -5206.374335548     eV
Dispersion corrected final free energy* (Ecor-TS) =  -5206.378206474     eV
NB dispersion corrected est. 0K energy* (Ecor-0.5TS) =  -5206.376271011     eV
 
 ************************************** Forces **************************************
 *                                                                                  *
 *                           Cartesian components (eV/A)                            *
 * -------------------------------------------------------------------------------- *
 *                         x                    y                    z              *
 *                                                                                  *
 * H               1      0.00725             -0.11083              0.11937         *
 * H               2     -0.01032              0.11408              0.12056         *
 * C               1      0.00328              0.00242             -0.00108         *
 * C               2      0.00204              0.00145              0.00194         *
 * C               3      0.00249             -0.00055             -0.00001         *
 * C               4      0.00195             -0.00087              0.00152         *
 * C               5     -0.00245              0.00105              0.00122         *
 * C               6     -0.00182              0.00114             -0.00020         *
 * C               7     -0.00335              0.00025             -0.00054         *
 * C               8     -0.00321             -0.00013             -0.00065         *
 * C               9      0.00034              0.00263             -0.00060         *
 * C              10     -0.00090             -0.00009             -0.00035         *
 * C              11      0.00073             -0.00135             -0.09039         *
 * C              12     -0.00430             -0.00111             -0.02923         *
 * C              13     -0.00371              0.00095             -0.01582         *
 * C              14      0.00059              0.00321              0.00235         *
 * C              15     -0.00111             -0.00182              0.00149         *
 * C              16     -0.00390              0.00209             -0.00076         *
 * C              17      0.00472             -0.00025             -0.00088         *
 * C              18      0.00044              0.00133              0.00183         *
 * C              19     -0.00240             -0.00229              0.00060         *
 * C              20      0.00722             -0.00334             -0.02742         *
 * C              21      0.00463              0.00038             -0.01582         *
 * C              22     -0.00161              0.00182             -0.07242         *
 * C              23     -0.00093              0.00069             -0.00116         *
 * C              24     -0.00043             -0.00272              0.00085         *
 * C              25      0.00292              0.00090             -0.00079         *
 * C              26      0.00370             -0.00110             -0.00117         *
 * C              27      0.00106             -0.00076              0.00030         *
 * C              28      0.00350             -0.00259              0.00154         *
 * C              29     -0.00074              0.00114              0.00109         *
 * C              30     -0.00240              0.00000              0.00202         *
 * C              31     -0.00196             -0.00137              0.00165         *
 * C              32     -0.00132             -0.00437              0.00096         *
 *                                                                                  *
 ************************************************************************************
  
 +------------+-------------+-------------+-----------------+ <-- min LBFGS
 |    Step    |   lambda    |   F.delta'  |    enthalpy     | <-- min LBFGS
 +------------+-------------+-------------+-----------------+ <-- min LBFGS
 |  previous  |    0.000000 |    0.136212 |    -5206.377327 | <-- min LBFGS
 | trial step |    1.000000 |    0.084271 |    -5206.378091 | <-- min LBFGS
 |  line step |    2.622437 |   -0.003545 |    -5206.378206 | <-- min LBFGS
 +------------+-------------+-------------+-----------------+ <-- min LBFGS
  
 LBFGS: finished iteration     2 with enthalpy= -5.20637821E+003 eV
  
 +-----------+-----------------+-----------------+------------+-----+ <-- LBFGS
 | Parameter |      value      |    tolerance    |    units   | OK? | <-- LBFGS
 +-----------+-----------------+-----------------+------------+-----+ <-- LBFGS
 |  dE/ion   |   2.585258E-005 |   2.000000E-005 |         eV | No  | <-- LBFGS
 |  |F|max   |   1.663019E-001 |   1.000000E-002 |       eV/A | No  | <-- LBFGS
 |  |dR|max  |   5.737945E-003 |   1.000000E-003 |          A | No  | <-- LBFGS
 +-----------+-----------------+-----------------+------------+-----+ <-- LBFGS
  

================================================================================
 Starting LBFGS iteration          3 ...
================================================================================
  
 +------------+-------------+-------------+-----------------+ <-- min LBFGS
 |    Step    |   lambda    |   F.delta'  |    enthalpy     | <-- min LBFGS
 +------------+-------------+-------------+-----------------+ <-- min LBFGS
 |  previous  |    0.000000 |    0.160789 |    -5206.378206 | <-- min LBFGS
 +------------+-------------+-------------+-----------------+ <-- min LBFGS
  

--------------------------------------------------------------------------------
 LBFGS: starting iteration         3 with trial guess (lambda=  1.000000)
--------------------------------------------------------------------------------
 
                           -------------------------------
                                     Cell Contents
                           -------------------------------
 
            xxxxxxxxxxxxxxxxxxxxxxxxxxxxxxxxxxxxxxxxxxxxxxxxxxxxxxxxxxxxxxxxx
            x  Element         Atom        Fractional coordinates of atoms  x
            x                 Number           u          v          w      x
            x---------------------------------------------------------------x
            x  H                 1         0.425196   0.352829   0.640114   x
            x  H                 2         0.462451   0.439890   0.640213   x
            x  C                 1         0.166471   0.083154   0.500004   x
            x  C                 2        -0.000098  -0.000151   0.500004   x
            x  C                 3         0.166447   0.333246   0.500008   x
            x  C                 4        -0.000167   0.249811   0.500003   x
            x  C                 5         0.166505   0.583424   0.500003   x
            x  C                 6        -0.000114   0.499950   0.500002   x
            x  C                 7         0.166515   0.833428   0.500002   x
            x  C                 8        -0.000064   0.750069   0.500001   x
            x  C                 9         0.416553   0.083139   0.500004   x
            x  C                10         0.249869  -0.000207   0.500003   x
            x  C                11         0.416597   0.333289   0.499772   x
            x  C                12         0.249890   0.249846   0.499952   x
            x  C                13         0.416667   0.583458   0.499982   x
            x  C                14         0.249871   0.499981   0.500012   x
            x  C                15         0.416642   0.833491   0.500004   x
            x  C                16         0.249937   0.750126   0.500001   x
            x  C                17         0.666727   0.083206   0.500001   x
            x  C                18         0.500025  -0.000155   0.500004   x
            x  C                19         0.666789   0.333349   0.500009   x
            x  C                20         0.499993   0.249879   0.499957   x
            x  C                21         0.666787   0.583490   0.499982   x
            x  C                22         0.500065   0.500024   0.499828   x
            x  C                23         0.666799   0.833540   0.500000   x
            x  C                24         0.500117   0.750202   0.500004   x
            x  C                25         0.916730   0.083263   0.500001   x
            x  C                26         0.750152  -0.000094   0.500002   x
            x  C                27         0.916781   0.333381   0.500002   x
            x  C                28         0.750159   0.249911   0.500003   x
            x  C                29         0.916836   0.583521   0.500003   x
            x  C                30         0.750227   0.500084   0.500011   x
            x  C                31         0.916767   0.833485   0.500004   x
            x  C                32         0.750200   0.750188   0.500005   x
            xxxxxxxxxxxxxxxxxxxxxxxxxxxxxxxxxxxxxxxxxxxxxxxxxxxxxxxxxxxxxxxxx
 
 
------------------------------------------------------------------------ <-- SCF
SCF loop      Energy           Fermi           Energy gain       Timer   <-- SCF
                               energy          per atom          (sec)   <-- SCF
------------------------------------------------------------------------ <-- SCF
Initial  -5.20362348E+003  0.00000000E+000                       245.66  <-- SCF
      1  -5.20362958E+003 -2.40943449E+000   1.79492935E-004     250.83  <-- SCF
      2  -5.20362958E+003 -2.40943461E+000   1.76002320E-007     254.64  <-- SCF
      3  -5.20362958E+003 -2.40946317E+000  -1.67791582E-007     259.42  <-- SCF
      4  -5.20362958E+003 -2.40950133E+000   8.04144939E-008     264.14  <-- SCF
------------------------------------------------------------------------ <-- SCF
 
Final energy, E             =  -5203.625711142     eV
Final free energy (E-TS)    =  -5203.629581483     eV
(energies not corrected for finite basis set)
 
NB est. 0K energy (E-0.5TS)      =  -5203.627646312     eV
 
(SEDC) Total Energy Correction : -0.274894E+01 eV

Dispersion corrected final energy*, Ecor          =  -5206.374650266     eV
Dispersion corrected final free energy* (Ecor-TS) =  -5206.378520607     eV
NB dispersion corrected est. 0K energy* (Ecor-0.5TS) =  -5206.376585436     eV
 
 ************************************** Forces **************************************
 *                                                                                  *
 *                           Cartesian components (eV/A)                            *
 * -------------------------------------------------------------------------------- *
 *                         x                    y                    z              *
 *                                                                                  *
 * H               1      0.00622             -0.09840              0.11894         *
 * H               2     -0.00928              0.10161              0.12008         *
 * C               1      0.00197              0.00126             -0.00210         *
 * C               2      0.00220              0.00109              0.00272         *
 * C               3      0.00125              0.00039             -0.00141         *
 * C               4      0.00186             -0.00003              0.00228         *
 * C               5     -0.00188              0.00102              0.00202         *
 * C               6     -0.00138              0.00063              0.00039         *
 * C               7     -0.00291              0.00081             -0.00034         *
 * C               8     -0.00275             -0.00022             -0.00026         *
 * C               9      0.00103              0.00087             -0.00155         *
 * C              10     -0.00024              0.00079             -0.00041         *
 * C              11      0.00076             -0.00091             -0.08424         *
 * C              12     -0.00234             -0.00064             -0.03181         *
 * C              13     -0.00289              0.00111             -0.01859         *
 * C              14     -0.00008              0.00214              0.00134         *
 * C              15     -0.00073             -0.00113              0.00238         *
 * C              16     -0.00308              0.00139             -0.00035         *
 * C              17      0.00360             -0.00043             -0.00051         *
 * C              18      0.00047              0.00072              0.00263         *
 * C              19     -0.00025             -0.00195             -0.00073         *
 * C              20      0.00500             -0.00237             -0.03020         *
 * C              21      0.00263             -0.00007             -0.01861         *
 * C              22     -0.00112              0.00114             -0.06946         *
 * C              23     -0.00077             -0.00079             -0.00094         *
 * C              24     -0.00098             -0.00149              0.00063         *
 * C              25      0.00277              0.00066             -0.00042         *
 * C              26      0.00306             -0.00096             -0.00114         *
 * C              27      0.00108             -0.00062              0.00104         *
 * C              28      0.00255             -0.00153              0.00234         *
 * C              29     -0.00136              0.00031              0.00187         *
 * C              30     -0.00139             -0.00073              0.00108         *
 * C              31     -0.00211             -0.00093              0.00257         *
 * C              32     -0.00091             -0.00276              0.00076         *
 *                                                                                  *
 ************************************************************************************
  
 +------------+-------------+-------------+-----------------+ <-- min LBFGS
 |    Step    |   lambda    |   F.delta'  |    enthalpy     | <-- min LBFGS
 +------------+-------------+-------------+-----------------+ <-- min LBFGS
 |  previous  |    0.000000 |    0.160789 |    -5206.378206 | <-- min LBFGS
 | trial step |    1.000000 |    0.156939 |    -5206.378521 | <-- min LBFGS
 +------------+-------------+-------------+-----------------+ <-- min LBFGS
  

--------------------------------------------------------------------------------
 LBFGS: improving iteration         3 with line minimization (lambda= 41.768751)
--------------------------------------------------------------------------------
 
                           -------------------------------
                                     Cell Contents
                           -------------------------------
 
            xxxxxxxxxxxxxxxxxxxxxxxxxxxxxxxxxxxxxxxxxxxxxxxxxxxxxxxxxxxxxxxxx
            x  Element         Atom        Fractional coordinates of atoms  x
            x                 Number           u          v          w      x
            x---------------------------------------------------------------x
            x  H                 1         0.424758   0.352030   0.643002   x
            x  H                 2         0.462831   0.440872   0.643116   x
            x  C                 1         0.166627   0.083253   0.499991   x
            x  C                 2        -0.000002  -0.000131   0.500043   x
            x  C                 3         0.166524   0.333255   0.500031   x
            x  C                 4        -0.000095   0.249762   0.500031   x
            x  C                 5         0.166394   0.583519   0.500023   x
            x  C                 6        -0.000177   0.500012   0.499997   x
            x  C                 7         0.166306   0.833422   0.499992   x
            x  C                 8        -0.000224   0.750087   0.499987   x
            x  C                 9         0.416612   0.083199   0.500002   x
            x  C                10         0.249819  -0.000248   0.499997   x
            x  C                11         0.416616   0.333259   0.497437   x
            x  C                12         0.249857   0.249873   0.499289   x
            x  C                13         0.416580   0.583429   0.499647   x
            x  C                14         0.249867   0.500099   0.500086   x
            x  C                15         0.416518   0.833465   0.500032   x
            x  C                16         0.249765   0.750233   0.499984   x
            x  C                17         0.666936   0.083131   0.499981   x
            x  C                18         0.500137  -0.000115   0.500040   x
            x  C                19         0.666735   0.333251   0.500045   x
            x  C                20         0.500098   0.249808   0.499342   x
            x  C                21         0.666844   0.583435   0.499648   x
            x  C                22         0.500030   0.499992   0.497996   x
            x  C                23         0.666822   0.833584   0.499974   x
            x  C                24         0.500051   0.750140   0.500026   x
            x  C                25         0.916895   0.083265   0.499984   x
            x  C                26         0.750353  -0.000134   0.499980   x
            x  C                27         0.916842   0.333364   0.500007   x
            x  C                28         0.750250   0.249772   0.500031   x
            x  C                29         0.916829   0.583599   0.500021   x
            x  C                30         0.750193   0.500068   0.500076   x
            x  C                31         0.916666   0.833454   0.500036   x
            x  C                32         0.750067   0.750044   0.500029   x
            xxxxxxxxxxxxxxxxxxxxxxxxxxxxxxxxxxxxxxxxxxxxxxxxxxxxxxxxxxxxxxxxx
 
 
------------------------------------------------------------------------ <-- SCF
SCF loop      Energy           Fermi           Energy gain       Timer   <-- SCF
                               energy          per atom          (sec)   <-- SCF
------------------------------------------------------------------------ <-- SCF
Initial  -5.20151030E+003  0.00000000E+000                       268.49  <-- SCF
      1  -5.20360427E+003 -2.40790310E+000   6.15872461E-002     273.42  <-- SCF
      2  -5.20364163E+003 -2.40905781E+000   1.09887810E-003     280.12  <-- SCF
      3  -5.20363083E+003 -2.40874372E+000  -3.17547086E-004     286.24  <-- SCF
      4  -5.20363168E+003 -2.40871159E+000   2.47961300E-005     292.54  <-- SCF
      5  -5.20363170E+003 -2.40871405E+000   5.47470084E-007     297.52  <-- SCF
      6  -5.20363170E+003 -2.40871466E+000   1.06124593E-007     302.37  <-- SCF
------------------------------------------------------------------------ <-- SCF
 
Final energy, E             =  -5203.627852432     eV
Final free energy (E-TS)    =  -5203.631699051     eV
(energies not corrected for finite basis set)
 
NB est. 0K energy (E-0.5TS)      =  -5203.629775741     eV
 
(SEDC) Total Energy Correction : -0.274615E+01 eV

Dispersion corrected final energy*, Ecor          =  -5206.374002403     eV
Dispersion corrected final free energy* (Ecor-TS) =  -5206.377849022     eV
NB dispersion corrected est. 0K energy* (Ecor-0.5TS) =  -5206.375925712     eV
 
 ************************************** Forces **************************************
 *                                                                                  *
 *                           Cartesian components (eV/A)                            *
 * -------------------------------------------------------------------------------- *
 *                         x                    y                    z              *
 *                                                                                  *
 * H               1     -0.03453              0.40206              0.08803         *
 * H               2      0.03241             -0.40019              0.08541         *
 * C               1     -0.04389             -0.04171             -0.04337         *
 * C               2      0.01035             -0.00931              0.02335         *
 * C               3     -0.04030              0.03488             -0.06094         *
 * C               4     -0.00666              0.03457              0.02177         *
 * C               5      0.03143             -0.00664              0.02258         *
 * C               6      0.01784             -0.02438              0.01159         *
 * C               7      0.02251              0.02637             -0.00246         *
 * C               8      0.02087             -0.00692              0.00323         *
 * C               9      0.02113             -0.06221             -0.04042         *
 * C              10      0.02774              0.04020             -0.01000         *
 * C              11      0.00334              0.00001              0.24448         *
 * C              12      0.06407              0.01365             -0.09989         *
 * C              13      0.02871              0.00991             -0.10934         *
 * C              14     -0.01505             -0.03701             -0.04813         *
 * C              15      0.02198              0.01806              0.02630         *
 * C              16      0.04123             -0.02600              0.00417         *
 * C              17     -0.05084             -0.00328              0.00282         *
 * C              18     -0.00654             -0.01990              0.02410         *
 * C              19      0.07091              0.01213             -0.05862         *
 * C              20     -0.07159              0.03245             -0.10901         *
 * C              21     -0.06908             -0.01385             -0.11069         *
 * C              22      0.01194             -0.00236              0.12402         *
 * C              23     -0.00195             -0.06148             -0.00110         *
 * C              24     -0.01670              0.03957             -0.01230         *
 * C              25     -0.00929             -0.00311              0.00221         *
 * C              26     -0.02924              0.00162             -0.01056         *
 * C              27     -0.00022              0.00606              0.01797         *
 * C              28     -0.04041              0.04463              0.02327         *
 * C              29     -0.02208             -0.03557              0.02130         *
 * C              30      0.02764             -0.03034             -0.04525         *
 * C              31     -0.00974              0.01520              0.02755         *
 * C              32      0.01401              0.05288             -0.01208         *
 *                                                                                  *
 ************************************************************************************
  
 +------------+-------------+-------------+-----------------+ <-- min LBFGS
 |    Step    |   lambda    |   F.delta'  |    enthalpy     | <-- min LBFGS
 +------------+-------------+-------------+-----------------+ <-- min LBFGS
 |  previous  |    0.000000 |    0.160789 |    -5206.378206 | <-- min LBFGS
 | trial step |    1.000000 |    0.156939 |    -5206.378521 | <-- min LBFGS
 |  line step |   41.768751 |   -0.062733 |    -5206.377849 | <-- min LBFGS
 +------------+-------------+-------------+-----------------+ <-- min LBFGS
  
 LBFGS: reverting to earlier configuration
 
                           -------------------------------
                                     Cell Contents
                           -------------------------------
 
            xxxxxxxxxxxxxxxxxxxxxxxxxxxxxxxxxxxxxxxxxxxxxxxxxxxxxxxxxxxxxxxxx
            x  Element         Atom        Fractional coordinates of atoms  x
            x                 Number           u          v          w      x
            x---------------------------------------------------------------x
            x  H                 1         0.425196   0.352829   0.640114   x
            x  H                 2         0.462451   0.439890   0.640213   x
            x  C                 1         0.166471   0.083154   0.500004   x
            x  C                 2        -0.000098  -0.000151   0.500004   x
            x  C                 3         0.166447   0.333246   0.500008   x
            x  C                 4        -0.000167   0.249811   0.500003   x
            x  C                 5         0.166505   0.583424   0.500003   x
            x  C                 6        -0.000114   0.499950   0.500002   x
            x  C                 7         0.166515   0.833428   0.500002   x
            x  C                 8        -0.000064   0.750069   0.500001   x
[...]
      C    12      Pz                   1.000
      C    13      S                    1.028
      C    13      Px                   0.986
      C    13      Py                   0.986
      C    13      Pz                   1.000
      C    14      S                    1.028
      C    14      Px                   0.986
      C    14      Py                   0.986
      C    14      Pz                   1.000
      C    15      S                    1.027
      C    15      Px                   0.986
      C    15      Py                   0.986
      C    15      Pz                   1.000
      C    16      S                    1.028
      C    16      Px                   0.986
      C    16      Py                   0.986
      C    16      Pz                   1.000
      C    17      S                    1.028
      C    17      Px                   0.986
      C    17      Py                   0.986
      C    17      Pz                   1.000
      C    18      S                    1.027
      C    18      Px                   0.986
      C    18      Py                   0.987
      C    18      Pz                   1.000
      C    19      S                    1.028
      C    19      Px                   0.986
      C    19      Py                   0.986
      C    19      Pz                   1.000
      C    20      S                    1.028
      C    20      Px                   0.986
      C    20      Py                   0.986
      C    20      Pz                   1.000
      C    21      S                    1.028
      C    21      Px                   0.986
      C    21      Py                   0.986
      C    21      Pz                   1.000
      C    22      S                    1.028
      C    22      Px                   0.986
      C    22      Py                   0.986
      C    22      Pz                   1.000
      C    23      S                    1.027
      C    23      Px                   0.986
      C    23      Py                   0.987
      C    23      Pz                   1.000
      C    24      S                    1.028
      C    24      Px                   0.986
      C    24      Py                   0.986
      C    24      Pz                   1.000
      C    25      S                    1.027
      C    25      Px                   0.986
      C    25      Py                   0.987
      C    25      Pz                   1.000
      C    26      S                    1.027
      C    26      Px                   0.986
      C    26      Py                   0.987
      C    26      Pz                   1.000
      C    27      S                    1.027
      C    27      Px                   0.986
      C    27      Py                   0.987
      C    27      Pz                   1.000
      C    28      S                    1.028
      C    28      Px                   0.986
      C    28      Py                   0.986
      C    28      Pz                   1.000
      C    29      S                    1.027
      C    29      Px                   0.986
      C    29      Py                   0.987
      C    29      Pz                   1.000
      C    30      S                    1.028
      C    30      Px                   0.986
      C    30      Py                   0.986
      C    30      Pz                   1.000
      C    31      S                    1.026
      C    31      Px                   0.987
      C    31      Py                   0.987
      C    31      Pz                   1.000
      C    32      S                    1.027
      C    32      Px                   0.986
      C    32      Py                   0.986
      C    32      Pz                   1.000
  -------------------------------------------
                           Total:     129.998
  -------------------------------------------
 
     Atomic Populations (Mulliken)
     -----------------------------
Species          Ion     s       p       d       f      Total   Charge (e)
==========================================================================
  H               1     0.999   0.000   0.000   0.000   0.999     0.001
  H               2     0.999   0.000   0.000   0.000   0.999     0.001
  C               1     1.027   2.973   0.000   0.000   4.000    -0.000
  C               2     1.026   2.974   0.000   0.000   4.000    -0.000
  C               3     1.028   2.972   0.000   0.000   4.000     0.000
  C               4     1.027   2.973   0.000   0.000   4.000     0.000
  C               5     1.028   2.972   0.000   0.000   4.000     0.000
  C               6     1.027   2.973   0.000   0.000   4.000    -0.000
  C               7     1.027   2.973   0.000   0.000   4.000     0.000
  C               8     1.027   2.974   0.000   0.000   4.000    -0.000
  C               9     1.028   2.972   0.000   0.000   4.000    -0.000
  C              10     1.027   2.974   0.000   0.000   4.001    -0.001
  C              11     1.028   2.972   0.000   0.000   3.999     0.001
  C              12     1.028   2.972   0.000   0.000   4.000     0.000
  C              13     1.028   2.972   0.000   0.000   4.000    -0.000
  C              14     1.028   2.972   0.000   0.000   4.000     0.000
  C              15     1.027   2.973   0.000   0.000   4.000    -0.000
  C              16     1.028   2.972   0.000   0.000   4.000    -0.000
  C              17     1.028   2.972   0.000   0.000   4.000    -0.000
  C              18     1.027   2.973   0.000   0.000   4.000    -0.000
  C              19     1.028   2.972   0.000   0.000   4.000    -0.000
  C              20     1.028   2.972   0.000   0.000   4.000     0.000
  C              21     1.028   2.972   0.000   0.000   4.000    -0.000
  C              22     1.028   2.972   0.000   0.000   4.000     0.000
  C              23     1.027   2.973   0.000   0.000   4.000    -0.000
  C              24     1.028   2.972   0.000   0.000   4.000    -0.000
  C              25     1.027   2.973   0.000   0.000   4.000    -0.000
  C              26     1.027   2.973   0.000   0.000   4.000     0.000
  C              27     1.027   2.973   0.000   0.000   4.000    -0.000
  C              28     1.028   2.972   0.000   0.000   4.000     0.000
  C              29     1.027   2.973   0.000   0.000   4.000     0.000
  C              30     1.028   2.972   0.000   0.000   4.000     0.000
  C              31     1.026   2.974   0.000   0.000   4.000    -0.000
  C              32     1.027   2.973   0.000   0.000   4.000    -0.000
==========================================================================
 
                 Bond                   Population      Length (A)
======================================================================
               H 1 -- H 2                    0.88        0.75112
              C 15 -- C 18                   1.07        1.42330
              C 7  -- C 10                   1.07        1.42339
              C 23 -- C 26                   1.07        1.42346
              C 2  -- C 31                   1.07        1.42349
              C 8  -- C 29                   1.07        1.42500
              C 4  -- C 25                   1.07        1.42502
              C 1  -- C 2                    1.07        1.42514
              C 31 -- C 32                   1.07        1.42514
              C 6  -- C 27                   1.07        1.42522
              C 2  -- C 25                   1.07        1.42525
              C 8  -- C 31                   1.07        1.42528
              C 7  -- C 8                    1.07        1.42533
              C 25 -- C 26                   1.07        1.42537
              C 29 -- C 30                   1.07        1.42552
              C 3  -- C 4                    1.07        1.42553
              C 5  -- C 6                    1.07        1.42564
              C 27 -- C 28                   1.07        1.42566
              C 4  -- C 27                   1.07        1.42569
              C 6  -- C 29                   1.07        1.42571
              C 1  -- C 12                   1.07        1.42620
              C 21 -- C 32                   1.07        1.42625
              C 23 -- C 24                   1.07        1.42625
              C 5  -- C 16                   1.07        1.42625
              C 9  -- C 10                   1.07        1.42626
              C 17 -- C 28                   1.07        1.42630
              C 15 -- C 16                   1.07        1.42647
              C 17 -- C 18                   1.07        1.42650
              C 9  -- C 20                   1.07        1.42653
              C 17 -- C 26                   1.07        1.42654
              C 13 -- C 24                   1.07        1.42654
              C 7  -- C 16                   1.07        1.42663
              C 11 -- C 12                   1.07        1.42666
              C 3  -- C 14                   1.07        1.42669
              C 21 -- C 22                   1.07        1.42670
              C 19 -- C 30                   1.07        1.42673
              C 23 -- C 32                   1.07        1.42674
              C 1  -- C 10                   1.07        1.42679
              C 11 -- C 22                   1.07        1.42688
              C 9  -- C 18                   1.07        1.42688
              C 13 -- C 14                   1.07        1.42692
              C 15 -- C 24                   1.07        1.42692
              C 19 -- C 20                   1.07        1.42694
              C 19 -- C 28                   1.07        1.42731
              C 21 -- C 30                   1.07        1.42740
              C 5  -- C 14                   1.07        1.42741
              C 3  -- C 12                   1.07        1.42745
              C 11 -- C 20                   1.07        1.42768
              C 13 -- C 22                   1.07        1.42776
              C 18 -- C 24                  -0.18        2.46666
              C 9  -- C 15                  -0.18        2.46669
              C 17 -- C 23                  -0.18        2.46681
              C 10 -- C 16                  -0.18        2.46686
              C 5  -- C 29                  -0.18        2.46703
              C 1  -- C 7                   -0.18        2.46709
              C 2  -- C 32                  -0.18        2.46712
              C 6  -- C 30                  -0.18        2.46715
              C 4  -- C 28                  -0.18        2.46716
              C 1  -- C 31                  -0.18        2.46716
              C 3  -- C 27                  -0.18        2.46718
              C 26 -- C 32                  -0.18        2.46722
              C 2  -- C 26                  -0.18        2.46759
              C 7  -- C 31                  -0.18        2.46761
              C 1  -- C 25                  -0.18        2.46763
              C 2  -- C 8                   -0.18        2.46770
              C 25 -- C 31                  -0.18        2.46777
              C 8  -- C 32                  -0.18        2.46779
              C 4  -- C 26                  -0.18        2.46800
              C 7  -- C 29                  -0.18        2.46804
              C 8  -- C 30                  -0.18        2.46848
              C 3  -- C 25                  -0.18        2.46851
              C 23 -- C 25                  -0.18        2.46863
              C 8  -- C 10                  -0.18        2.46864
              C 7  -- C 9                   -0.18        2.46881
              C 6  -- C 28                  -0.18        2.46882
              C 24 -- C 26                  -0.18        2.46883
              C 5  -- C 27                  -0.18        2.46886
              C 16 -- C 18                  -0.18        2.46915
              C 15 -- C 17                  -0.18        2.46916
              C 8  -- C 16                  -0.18        2.46960
              C 19 -- C 27                  -0.18        2.46964
              C 6  -- C 14                  -0.18        2.46968
              C 17 -- C 25                  -0.18        2.46969
              C 21 -- C 31                  -0.18        2.46969
              C 2  -- C 12                  -0.18        2.46972
              C 23 -- C 31                  -0.18        2.46972
              C 2  -- C 10                  -0.18        2.46980
              C 4  -- C 12                  -0.18        2.46988
              C 29 -- C 31                  -0.18        2.46991
              C 21 -- C 29                  -0.18        2.46996
              C 26 -- C 28                  -0.18        2.47000
              C 2  -- C 4                   -0.18        2.47001
              C 5  -- C 7                   -0.18        2.47006
              C 13 -- C 15                  -0.18        2.47020
              C 18 -- C 20                  -0.18        2.47024
              C 10 -- C 12                  -0.18        2.47042
              C 21 -- C 23                  -0.18        2.47052
              C 5  -- C 15                  -0.18        2.47085
              C 18 -- C 28                  -0.18        2.47087
              C 10 -- C 20                  -0.18        2.47094
              C 13 -- C 23                  -0.18        2.47095
              C 25 -- C 27                  -0.17        2.47098
              C 24 -- C 32                  -0.18        2.47098
              C 6  -- C 8                   -0.17        2.47102
              C 19 -- C 29                  -0.18        2.47110
              C 4  -- C 14                  -0.17        2.47110
              C 1  -- C 9                   -0.18        2.47111
              C 14 -- C 16                  -0.18        2.47111
              C 17 -- C 27                  -0.17        2.47113
              C 1  -- C 11                  -0.17        2.47114
              C 30 -- C 32                  -0.18        2.47114
              C 7  -- C 15                  -0.18        2.47114
              C 17 -- C 19                  -0.18        2.47115
              C 6  -- C 16                  -0.17        2.47116
              C 18 -- C 26                  -0.17        2.47117
              C 1  -- C 3                   -0.18        2.47121
              C 22 -- C 32                  -0.17        2.47122
              C 4  -- C 6                   -0.17        2.47126
              C 20 -- C 28                  -0.18        2.47127
              C 9  -- C 11                  -0.18        2.47129
              C 27 -- C 29                  -0.17        2.47134
              C 3  -- C 11                  -0.18        2.47136
              C 5  -- C 13                  -0.18        2.47137
              C 22 -- C 30                  -0.18        2.47142
              C 10 -- C 18                  -0.17        2.47144
              C 22 -- C 24                  -0.18        2.47146
              C 19 -- C 21                  -0.18        2.47152
              C 15 -- C 23                  -0.17        2.47153
              C 9  -- C 17                  -0.18        2.47158
              C 12 -- C 14                  -0.18        2.47161
              C 16 -- C 24                  -0.17        2.47163
              C 3  -- C 5                   -0.18        2.47164
              C 28 -- C 30                  -0.17        2.47165
              C 13 -- C 21                  -0.18        2.47165
              C 20 -- C 22                  -0.17        2.47166
              C 12 -- C 20                  -0.17        2.47169
              C 14 -- C 22                  -0.17        2.47176
              C 11 -- C 19                  -0.18        2.47183
              C 11 -- C 13                  -0.17        2.47184
              C 3  -- C 13                  -0.17        2.47191
              C 12 -- C 22                  -0.17        2.47195
              C 20 -- C 30                  -0.17        2.47195
              C 11 -- C 21                  -0.17        2.47201
              C 9  -- C 19                  -0.17        2.47205
              C 14 -- C 24                  -0.17        2.47207
              C 2  -- C 7                   -0.10        2.84884
              C 26 -- C 31                  -0.10        2.84895
              C 17 -- C 24                  -0.10        2.84908
              C 9  -- C 16                  -0.10        2.84918
              C 10 -- C 15                  -0.10        2.84977
              C 18 -- C 23                  -0.10        2.84980
              C 6  -- C 19                  -0.10        2.84981
              C 14 -- C 27                  -0.10        2.84991
              C 16 -- C 29                  -0.10        2.84997
              C 12 -- C 25                  -0.10        2.85002
              C 1  -- C 8                   -0.10        2.85005
              C 4  -- C 17                  -0.10        2.85005
              C 25 -- C 32                  -0.10        2.85012
              C 8  -- C 21                  -0.10        2.85017
              C 2  -- C 23                  -0.10        2.85036
              C 10 -- C 31                  -0.10        2.85052
              C 5  -- C 8                   -0.10        2.85091
              C 25 -- C 28                  -0.10        2.85105
              C 3  -- C 6                   -0.10        2.85149
              C 27 -- C 30                  -0.10        2.85155
              C 1  -- C 4                   -0.10        2.85160
              C 29 -- C 32                  -0.10        2.85167
              C 13 -- C 16                  -0.10        2.85264
              C 17 -- C 20                  -0.10        2.85267
              C 30 -- C 31                  -0.10        2.85274
              C 9  -- C 12                  -0.10        2.85293
              C 21 -- C 24                  -0.10        2.85295
              C 2  -- C 3                   -0.10        2.85296
              C 10 -- C 11                  -0.10        2.85318
              C 19 -- C 22                  -0.10        2.85319
              C 11 -- C 14                  -0.10        2.85324
              C 14 -- C 15                  -0.10        2.85335
              C 22 -- C 23                  -0.10        2.85340
              C 18 -- C 19                  -0.10        2.85342
              C 26 -- C 27                  -0.10        2.85348
              C 6  -- C 7                   -0.10        2.85368
              C 13 -- C 32                  -0.10        2.85389
              C 7  -- C 18                  -0.10        2.85398
              C 1  -- C 20                  -0.10        2.85403
              C 15 -- C 26                  -0.10        2.85407
              C 9  -- C 28                  -0.10        2.85438
              C 3  -- C 22                  -0.10        2.85441
              C 5  -- C 24                  -0.10        2.85451
              C 20 -- C 21                  -0.10        2.85455
              C 11 -- C 30                  -0.10        2.85460
              C 12 -- C 13                  -0.10        2.85470
              C 4  -- C 5                   -0.10        2.85477
              C 28 -- C 29                  -0.10        2.85479
======================================================================
 

Writing analysis data to 4x4.castep_bin

Writing model to 4x4.check
 
 A BibTeX formatted list of references used in this run has been written to 
 4x4.bib
 
Initialisation time =      2.94 s
Calculation time    =   7720.82 s
Finalisation time   =      2.17 s
Total time          =   7725.93 s
Peak Memory Use     = 1020340 kB
  
Overall parallel efficiency rating: Mediocre (54%)                              
  
Data was distributed by:-
G-vector (16-way); efficiency rating: Mediocre (55%)                            
k-point (8-way); efficiency rating: Excellent (95%)                             
