 +-------------------------------------------------+
 |                                                 |
 |      CCC   AA    SSS  TTTTT  EEEEE  PPPP        |
 |     C     A  A  S       T    E      P   P       |
 |     C     AAAA   SS     T    EEE    PPPP        |
 |     C     A  A     S    T    E      P           |
 |      CCC  A  A  SSS     T    EEEEE  P           |
 |                                                 |
 +-------------------------------------------------+
 |                                                 |
 | Welcome to Academic Release CASTEP version 21.11|          
 | Ab Initio Total Energy Program                  |
 |                                                 |
 | Authors:                                        |
 | M. Segall, M. Probert, C. Pickard, P. Hasnip,   |
 | S. Clark, K. Refson, J. R. Yates, M. Payne      |
 |                                                 |
 | Contributors:                                   |
 | P. Lindan, P. Haynes, J. White, V. Milman,      |
 | N. Govind, M. Gibson, P. Tulip, V. Cocula,      |
 | B. Montanari, D. Quigley, M. Glover,            |
 | L. Bernasconi, A. Perlov, M. Plummer,           |
 | E. McNellis, J. Meyer, J. Gale, D. Jochym       |
 | J. Aarons, B. Walker, R. Gillen, D. Jones       |
 | T. Green, I. J. Bush, C. J. Armstrong,          |
 | E. J. Higgins, E. L. Brown, M. S. McFly,        |
 | J. Wilkins, B-C. Shih, P. J. P. Byrne,          |
 | R. J. Maurer, J. C. Womack, J. Dziedzic,        |
 | A. Bartok-Partay, L. LeBlanc                    |
 |                                                 |
 | Copyright (c) 2000 - 2021                       |
 |                                                 |
 |     Distributed under license from Cambridge    |
 |     Enterprise for academic use only.           |
 |                                                 |
 | Please cite                                     |
 |                                                 |
 |     "First principles methods using CASTEP"     |
 |                                                 |
 |         Zeitschrift fuer Kristallographie       |
 |           220(5-6) pp. 567-570 (2005)           |
 |                                                 |
 | S. J. Clark, M. D. Segall, C. J. Pickard,       |
 | P. J. Hasnip, M. J. Probert, K. Refson,         |
 | M. C. Payne                                     |
 |                                                 |
 |       in all publications arising from          |
 |              your use of CASTEP                 |
 |                                                 |
 +-------------------------------------------------+
 |                                                 |
 |              http://www.castep.org              |
 |                                                 |
 +-------------------------------------------------+
 
 
 
 Compiled for linux_x86_64_cray-XT on Tue, 01 Mar 2022 09:19:15 +0000
 from code version 7d4405a8a+  HEAD  Sat Nov 27 13:38:33 2021 +0000
 Compiler: Cray Fortran 12.0.3; Optimisation: fast
 MATHLIBS: LibSci (LAPACK version 3.6.1)
 FFT Lib : fftw3 version commercial-fftw-3.3.8-sse2-avx-avx2-avx2_128
 Fundamental constants values: CODATA 2014
 
 Run started: Thu, 27 Oct 2022 12:19:41 -0100
 
 Atomic calculation performed for H: 1s1
 
 Converged in 41 iterations to an ae energy of -12.488 eV
 
   ============================================================                
   | Pseudopotential Report - Date of generation 27-10-2022   |                
   ------------------------------------------------------------                
   | Element: H Ionic charge:  1.00 Level of theory: PBE      |                
   | Atomic Solver: Koelling-Harmon                           |                
   |                                                          |                
   |               Reference Electronic Structure             |                
   |         Orbital         Occupation         Energy        |                
   |            1s              1.000           -0.239        |                
   |                                                          |                
   |                 Pseudopotential Definition               |                
   |        Beta     l      e      Rc     scheme   norm       |                
   |          1      0   -0.239   0.599     qc      0         |                
   |          2      0    0.250   0.599     qc      0         |                
   |         loc     1    0.000   0.599     pn      0         |                
   |                                                          |                
   | Augmentation charge Rinner = 0.421                       |                
   | No partial core correction                               |                
   ------------------------------------------------------------                
   | "1|0.6|13|15|17|10(qc=8)"                                |                
   ------------------------------------------------------------                
   |      Author: Chris J. Pickard, Cambridge University      |                
   ============================================================                
 
 Atomic calculation performed for C: 1s2 2s2 2p2
 
 Converged in 54 iterations to an ae energy of -1027.632 eV
 
   ============================================================                
   | Pseudopotential Report - Date of generation 27-10-2022   |                
   ------------------------------------------------------------                
   | Element: C Ionic charge:  4.00 Level of theory: PBE      |                
   | Atomic Solver: Koelling-Harmon                           |                
   |                                                          |                
   |               Reference Electronic Structure             |                
   |         Orbital         Occupation         Energy        |                
   |            2s              2.000           -0.505        |                
   |            2p              2.000           -0.194        |                
   |                                                          |                
   |                 Pseudopotential Definition               |                
   |        Beta     l      e      Rc     scheme   norm       |                
   |          1      0   -0.505   1.201     qc      1         |                
   |         loc     1   -0.194   1.201     qc      1         |                
   |                                                          |                
   | No charge augmentation                                   |                
   | Partial core correction Rc = 0.839                       |                
   ------------------------------------------------------------                
   | "1|1.2|17|20|23|20N:21L(qc=8)"                           |                
   ------------------------------------------------------------                
   |      Author: Chris J. Pickard, Cambridge University      |                
   ============================================================                
 
 Pseudo atomic calculation performed for H 1s1
 
 Converged in 13 iterations to a total energy of -12.4856 eV
 
 Pseudo atomic calculation performed for C 2s2 2p2
 
 Converged in 18 iterations to a total energy of -152.4291 eV
 Calculation parallelised over 128 processes.
 Data is distributed by G-vector(16-way) and k-point(8-way)

 ************************************ Title ************************************
 

 ***************************** General Parameters ******************************
  
 output verbosity                               : normal  (1)
 write checkpoint data to                       : 4x4.check
 type of calculation                            : geometry optimization
 stress calculation                             : off
 density difference calculation                 : off
 electron localisation func (ELF) calculation   : off
 Hirshfeld analysis                             : off
 polarisation (Berry phase) analysis            : off
 molecular orbital projected DOS                : off
 deltaSCF calculation                           : off
 unlimited duration calculation
 timing information                             : on
 memory usage estimate                          : on
 write extra output files                       : on
 write final potential to formatted file        : off
 write final density to formatted file          : off
 write structure in CELL formatted file         : on
 write BibTeX reference list                    : on
 write OTFG pseudopotential files               : on
 write electrostatic potential file             : on
 write bands file                               : on
 checkpoint writing                             : both castep_bin and check files
  
 output         length unit                     : A
 output           mass unit                     : amu
 output           time unit                     : ps
 output         charge unit                     : e
 output           spin unit                     : hbar/2
 output         energy unit                     : eV
 output          force unit                     : eV/A
 output       velocity unit                     : A/ps
 output       pressure unit                     : GPa
 output     inv_length unit                     : 1/A
 output      frequency unit                     : cm-1
 output force constant unit                     : eV/A**2
 output         volume unit                     : A**3
 output   IR intensity unit                     : (D/A)**2/amu
 output         dipole unit                     : D
 output         efield unit                     : eV/A/e
 output        entropy unit                     : J/mol/K
 output    efield chi2 unit                     : pm/V
  
 wavefunctions paging                           : none
 random number generator seed                   : randomised (121941553)
 data distribution                              : optimal for this architecture
 optimization strategy                          : maximize speed(+++)

 *********************** Exchange-Correlation Parameters ***********************
  
 using functional                               : Perdew Burke Ernzerhof
 relativistic treatment                         : Koelling-Harmon
 DFT+D: Semi-empirical dispersion correction    : on
 SEDC with                                      : MBD@rsSCS method

 ************************* Pseudopotential Parameters **************************
  
 pseudopotential representation                 : reciprocal space
 <beta|phi> representation                      : reciprocal space
 spin-orbit coupling                            : off

 **************************** Basis Set Parameters *****************************
  
 plane wave basis set cut-off                   :   800.0000   eV
 size of standard grid                          :     1.7500
 size of   fine   gmax                          :    25.3584   1/A
 finite basis set correction                    : none

 **************************** Electronic Parameters ****************************
  
 number of  electrons                           :  129.0    
 net charge of system                           :  0.000    
 net spin   of system                           :  1.000    
 number of  up  spins                           :  65.00    
 number of down spins                           :  64.00    
 treating system as spin-polarized
 number of bands                                :         98

 ********************* Electronic Minimization Parameters **********************
  
 Method: Treating system as metallic with density mixing treatment of electrons,
         and number of  SD  steps               :          1
         and number of  CG  steps               :          4
  
 total energy / atom convergence tol.           : 0.1000E-05   eV
 eigen-energy convergence tolerance             : 0.3367E-06   eV
 max force / atom convergence tol.              : ignored
 convergence tolerance window                   :          3   cycles
 max. number of SCF cycles                      :        100
 number of fixed-spin iterations                :         10
 smearing scheme                                : Gaussian
 smearing width                                 : 0.2000       eV
 Fermi energy convergence tolerance             : 0.2721E-13   eV
 periodic dipole correction                     : NONE

 ************************** Density Mixing Parameters **************************
  
 density-mixing scheme                          : Pulay
 max. length of mixing history                  :         20
 charge density mixing amplitude                : 0.8000    
   spin density mixing amplitude                :  2.000    
 cut-off energy for mixing                      :  800.0       eV

 *********************** Population Analysis Parameters ************************
  
 Population analysis with cutoff                :  3.000       A
 Population analysis output                     : summary and pdos components

 ********************** Geometry Optimization Parameters ***********************
  
 optimization method                            : LBFGS
 max. no. of LBFGS updates                      : unbounded
 variable cell method                           : fixed basis quality
 max. number of steps                           :        100
 estimated bulk modulus                         :  500.0       GPa
 estimated <frequency>                          :  1668.       cm-1
 geom line minimiser                            : on
 with line minimiser tolerance                  :     0.4000
  with spin fully able to relax for all steps
 total energy convergence tolerance             : 0.2000E-04   eV/atom
        max ionic |force| tolerance             : 0.1000E-01   eV/A
 max ionic |displacement| tolerance             : 0.1000E-02   A
   max |stress component| tolerance             : 0.1000       GPa
 convergence tolerance window                   :          2   steps
 backup results every                           :          5   steps
 write geom trajectory file                     : on

 *******************************************************************************
  
 
                           -------------------------------
                                      Unit Cell
                           -------------------------------
        Real Lattice(A)                      Reciprocal Lattice(1/A)
     9.8800000     0.0000000     0.0000000        0.635949930   0.367165863   0.000000000
    -4.9400000     8.5563310     0.0000000        0.000000000   0.734331726   0.000000000
     0.0000000     0.0000000    20.0339000        0.000000000   0.000000000   0.313627666
 
                       Lattice parameters(A)       Cell Angles
                    a =      9.880000          alpha =   90.000000
                    b =      9.880000          beta  =   90.000000
                    c =     20.033900          gamma =  120.000000
 
                       Current cell volume =          1693.596795       A**3
                                   density =             0.227534   AMU/A**3
                                           =             0.377829     g/cm^3
 
                           -------------------------------
                                     Cell Contents
                           -------------------------------
                         Total number of ions in cell =   33
                      Total number of species in cell =    2
                        Max number of any one species =   32
 
            xxxxxxxxxxxxxxxxxxxxxxxxxxxxxxxxxxxxxxxxxxxxxxxxxxxxxxxxxxxx
            x  Element    Atom        Fractional coordinates of atoms  x
            x            Number           u          v          w      x
            x----------------------------------------------------------x
            x  H            1         0.416592   0.333285   0.649749   x 
            x  C            1         0.166476   0.083155   0.500002   x 
            x  C            2        -0.000100  -0.000140   0.500002   x 
            x  C            3         0.166447   0.333239   0.500002   x 
            x  C            4        -0.000173   0.249815   0.500002   x 
            x  C            5         0.166520   0.583404   0.500002   x 
            x  C            6        -0.000108   0.499946   0.500002   x 
            x  C            7         0.166543   0.833430   0.500002   x 
            x  C            8        -0.000049   0.750064   0.500002   x 
            x  C            9         0.416557   0.083155   0.500002   x 
            x  C           10         0.249870  -0.000199   0.500002   x 
            x  C           11         0.416592   0.333285   0.500002   x 
            x  C           12         0.249853   0.249827   0.500002   x 
            x  C           13         0.416666   0.583474   0.500002   x 
            x  C           14         0.249889   0.499981   0.500002   x 
            x  C           15         0.416657   0.833476   0.500002   x 
            x  C           16         0.249960   0.750123   0.500002   x 
            x  C           17         0.666714   0.083225   0.500002   x 
            x  C           18         0.500005  -0.000152   0.500002   x 
            x  C           19         0.666769   0.333356   0.500002   x 
            x  C           20         0.500012   0.249862   0.500002   x 
            x  C           21         0.666815   0.583509   0.500002   x 
            x  C           22         0.500066   0.500051   0.500002   x 
            x  C           23         0.666788   0.833535   0.500002   x 
            x  C           24         0.500117   0.750193   0.500002   x 
            x  C           25         0.916717   0.083272   0.500002   x 
            x  C           26         0.750125  -0.000093   0.500002   x 
            x  C           27         0.916770   0.333379   0.500002   x 
            x  C           28         0.750152   0.249920   0.500002   x 
            x  C           29         0.916836   0.583509   0.500002   x 
            x  C           30         0.750215   0.500086   0.500002   x 
            x  C           31         0.916769   0.833476   0.500002   x 
            x  C           32         0.750202   0.750181   0.500002   x 
            xxxxxxxxxxxxxxxxxxxxxxxxxxxxxxxxxxxxxxxxxxxxxxxxxxxxxxxxxxxx
 
 
                         No user defined ionic velocities
 
                           -------------------------------
                                   Details of Species
                           -------------------------------
 
                               Mass of species in AMU
                                    H    1.0079400
                                    C   12.0107000
 
                          Electric Quadrupole Moment (Barn)
                                    H    0.0028600 Isotope  2
                                    C    0.0332700 Isotope 11
 
                          Files used for pseudopotentials:
                                    H 1|0.6|13|15|17|10(qc=8)
                                    C 1|1.2|17|20|23|20N:21L(qc=8)
 
                           -------------------------------
                              k-Points For BZ Sampling
                           -------------------------------
                       MP grid size for SCF calculation is  4  4  1
                            with an offset of   0.000  0.000  0.000
                       Number of kpoints used =   8
 
                           -------------------------------
                               Symmetry and Constraints
                           -------------------------------
 
                      Maximum deviation from symmetry =  0.00000         ANG
 
                      Number of symmetry operations   = 1
         There are no ionic constraints specified or generated for this cell
                      Point group of crystal =     1: C1, 1, 1
                      Space group of crystal =     1: P1, P 1
 
             Set iprint > 1 for details on symmetry rotations/translations
 
                         Centre of mass is NOT constrained
 
                         Number of cell constraints= 6
                         Cell constraints are:  0 0 0 0 0 0
 
                         External pressure/stress (GPa)
                          0.00000   0.00000   0.00000
                                    0.00000   0.00000
                                              0.00000
 
                                --------------------
                                  DFT-D parameters
                                --------------------
 
                          Dispersion-correction scheme : MBD*      
                        Parameter sR :   0.830000 (default)
 
        xxxxxxxxxxxxxxxxxxxxxxxxxxxxxxxxxxxxxxxxxxxxxxxxxxxxxxxxxxxxxxxxxxxx
        x              Atomic DFT-D parameters                             x
        x  Species      C6            alpha        R0                      x
        x               eV A^6        A^3          A                       x
        x------------------------------------------------------------------x
        x  H             3.8839       0.6668       1.6404   (default)      x
        x  C            27.8448       1.7782       1.8997   (default)      x
        xxxxxxxxxxxxxxxxxxxxxxxxxxxxxxxxxxxxxxxxxxxxxxxxxxxxxxxxxxxxxxxxxxxx
 
  
+---------------- MEMORY AND SCRATCH DISK ESTIMATES PER PROCESS --------------+
|                                                     Memory          Disk    |
| Baseline code, static data and system overhead      770.0 MB         0.0 MB |
| BLAS internal memory storage                          0.0 MB         0.0 MB |
| Model and support data                               49.8 MB         0.0 MB |
| Electronic energy minimisation requirements          85.3 MB         0.0 MB |
| Force calculation requirements                       20.6 MB         0.0 MB |
|                                               ----------------------------- |
| Approx. total storage required per process          905.1 MB         0.0 MB |
|                                                                             |
| Requirements will fluctuate during execution and may exceed these estimates |
+-----------------------------------------------------------------------------+
Calculating approximate eigenstates for fixed initial Hamiltonian
Cut-off for approx. calculation is  119.774 eV
Improving approx. states at cut-off of  462.594 eV
Resetting cut-off to  800.000 eV
Calculating total energy with cut-off of  800.000 eV.
------------------------------------------------------------------------ <-- SCF
SCF loop      Energy           Fermi           Energy gain       Timer   <-- SCF
                               energy          per atom          (sec)   <-- SCF
------------------------------------------------------------------------ <-- SCF
Initial  -4.72273818E+003  0.00000000E+000                        15.46  <-- SCF
      1  -5.19809693E+003 -5.23323072E+000   1.44048107E+001      26.51  <-- SCF
      2  -5.19831052E+003 -5.23381943E+000   6.47220669E-003      38.01  <-- SCF
      3  -5.18200703E+003 -4.28003424E+000  -4.94045070E-001      49.99  <-- SCF
      4  -5.17770138E+003 -3.83578189E+000  -1.30474276E-001      62.66  <-- SCF
      5  -5.18416153E+003 -3.60774172E+000   1.95762169E-001      75.80  <-- SCF
      6  -5.18487850E+003 -3.47068571E+000   2.17265096E-002      88.09  <-- SCF
      7  -5.18487086E+003 -3.25588710E+000  -2.31558456E-004      99.78  <-- SCF
      8  -5.18490403E+003 -3.12428628E+000   1.00504385E-003     111.22  <-- SCF
      9  -5.18479999E+003 -2.95621140E+000  -3.15276070E-003     122.71  <-- SCF
     10  -5.18500522E+003 -2.84681305E+000   6.21913871E-003     135.03  <-- SCF
     11  -5.18525581E+003 -2.83640191E+000   7.59371751E-003     145.95  <-- SCF
     12  -5.18531800E+003 -2.82176379E+000   1.88433179E-003     157.17  <-- SCF
     13  -5.18541982E+003 -2.76185941E+000   3.08566384E-003     169.36  <-- SCF
     14  -5.18549783E+003 -2.70719808E+000   2.36377194E-003     181.21  <-- SCF
     15  -5.18549787E+003 -2.61950074E+000   1.31985756E-006     192.42  <-- SCF
     16  -5.18546684E+003 -2.54529785E+000  -9.40364569E-004     203.31  <-- SCF
     17  -5.18544789E+003 -2.47898685E+000  -5.74242109E-004     214.28  <-- SCF
     18  -5.18545787E+003 -2.44260521E+000   3.02484520E-004     224.44  <-- SCF
     19  -5.18547226E+003 -2.42859959E+000   4.35928633E-004     234.22  <-- SCF
     20  -5.18548422E+003 -2.41788526E+000   3.62669185E-004     244.89  <-- SCF
     21  -5.18547737E+003 -2.41689111E+000  -2.07552886E-004     255.55  <-- SCF
     22  -5.18549486E+003 -2.41704136E+000   5.29846401E-004     265.90  <-- SCF
     23  -5.18550366E+003 -2.41738413E+000   2.66810503E-004     276.19  <-- SCF
     24  -5.18550676E+003 -2.41804277E+000   9.38705346E-005     286.35  <-- SCF
     25  -5.18551176E+003 -2.41826108E+000   1.51327144E-004     296.48  <-- SCF
     26  -5.18551319E+003 -2.41856629E+000   4.34295863E-005     306.71  <-- SCF
     27  -5.18551413E+003 -2.41871527E+000   2.84463378E-005     316.68  <-- SCF
     28  -5.18551477E+003 -2.41855138E+000   1.94307151E-005     326.89  <-- SCF
     29  -5.18551520E+003 -2.41814832E+000   1.31416020E-005     336.81  <-- SCF
     30  -5.18551535E+003 -2.41784860E+000   4.49188603E-006     346.90  <-- SCF
     31  -5.18551542E+003 -2.41763327E+000   2.02268775E-006     356.54  <-- SCF
     32  -5.18551543E+003 -2.41751986E+000   5.02953960E-007     366.08  <-- SCF
     33  -5.18551544E+003 -2.41744680E+000   2.08347404E-007     375.73  <-- SCF
------------------------------------------------------------------------ <-- SCF
 
Integrated Spin Density     =    0.999997     hbar/2                        
Integrated |Spin Density|   =     1.00842     hbar/2                        
 
Final energy, E             =  -5185.511604340     eV
Final free energy (E-TS)    =  -5185.515441415     eV
(energies not corrected for finite basis set)
 
NB est. 0K energy (E-0.5TS)      =  -5185.513522877     eV
 
 WARNING: Your unit cell might be too small to get accurate results for van der Waals
(SEDC) Total Energy Correction : -0.272665E+01 eV

Dispersion corrected final energy*, Ecor          =  -5188.238258501     eV
Dispersion corrected final free energy* (Ecor-TS) =  -5188.242095576     eV
NB dispersion corrected est. 0K energy* (Ecor-0.5TS) =  -5188.240177038     eV

Writing analysis data to 4x4.castep_bin

Writing model to 4x4.check
 
+---------------- MEMORY AND SCRATCH DISK ESTIMATES PER PROCESS --------------+
|                                                     Memory          Disk    |
| Model and support data                               54.8 MB         0.0 MB |
| Electronic energy minimisation requirements          85.3 MB         0.0 MB |
| Geometry minimisation requirements                  103.8 MB         0.0 MB |
|                                               ----------------------------- |
| Approx. total storage required per process          243.8 MB         0.0 MB |
|                                                                             |
| Requirements will fluctuate during execution and may exceed these estimates |
+-----------------------------------------------------------------------------+
 
 
 ************************************** Forces **************************************
 *                                                                                  *
 *                           Cartesian components (eV/A)                            *
 * -------------------------------------------------------------------------------- *
 *                         x                    y                    z              *
 *                                                                                  *
 * H               1     -0.00035             -0.00057              0.06706         *
 * C               1     -0.00608             -0.00255             -0.00100         *
 * C               2      0.00290             -0.00383              0.00017         *
 * C               3     -0.00282              0.00129             -0.00105         *
 * C               4      0.00108             -0.00242              0.00014         *
 * C               5     -0.01004              0.00945              0.00006         *
 * C               6     -0.00131              0.00077             -0.00002         *
 * C               7     -0.00927              0.00245              0.00017         *
 * C               8     -0.00477             -0.00007              0.00001         *
 * C               9      0.00068             -0.00774             -0.00100         *
 * C              10      0.00359             -0.00086              0.00106         *
 * C              11     -0.00002              0.00201             -0.02395         *
 * C              12     -0.00982             -0.00474             -0.01379         *
 * C              13     -0.01165              0.00243             -0.00107         *
 * C              14     -0.00022              0.00080              0.00107         *
 * C              15     -0.00942              0.00786              0.00001         *
 * C              16     -0.00440             -0.00340             -0.00002         *
 * C              17      0.00432             -0.00643             -0.00010         *
 * C              18      0.00889             -0.00142              0.00014         *
 * C              19      0.00953             -0.00484             -0.00102         *
 * C              20      0.00865             -0.00313             -0.01375         *
 * C              21      0.00335              0.00059             -0.00102         *
 * C              22      0.00622              0.00412             -0.01380         *
 * C              23      0.00475              0.00126             -0.00008         *
 * C              24      0.00056              0.00016              0.00014         *
 * C              25      0.00531             -0.00344              0.00003         *
 * C              26      0.00824             -0.00193              0.00014         *
 * C              27      0.00339              0.00076              0.00001         *
 * C              28      0.00129             -0.00225              0.00014         *
 * C              29     -0.00066              0.00551              0.00005         *
 * C              30      0.00211              0.00244              0.00105         *
 * C              31     -0.00107              0.00449              0.00003         *
 * C              32     -0.00299              0.00321              0.00017         *
 *                                                                                  *
 ************************************************************************************
 LBFGS: finished iteration     0 with enthalpy= -5.18824210E+003 eV
  
 +-----------+-----------------+-----------------+------------+-----+ <-- LBFGS
 | Parameter |      value      |    tolerance    |    units   | OK? | <-- LBFGS
 +-----------+-----------------+-----------------+------------+-----+ <-- LBFGS
 |  dE/ion   |   0.000000E+000 |   2.000000E-005 |         eV | No  | <-- LBFGS
 |  |F|max   |   6.706447E-002 |   1.000000E-002 |       eV/A | No  | <-- LBFGS
 |  |dR|max  |   0.000000E+000 |   1.000000E-003 |          A | No  | <-- LBFGS
 +-----------+-----------------+-----------------+------------+-----+ <-- LBFGS
  

================================================================================
 Starting LBFGS iteration          1 ...
================================================================================
  
 +------------+-------------+-------------+-----------------+ <-- min LBFGS
 |    Step    |   lambda    |   F.delta'  |    enthalpy     | <-- min LBFGS
 +------------+-------------+-------------+-----------------+ <-- min LBFGS
 |  previous  |    0.000000 |    0.048550 |    -5188.242096 | <-- min LBFGS
 +------------+-------------+-------------+-----------------+ <-- min LBFGS
  

--------------------------------------------------------------------------------
 LBFGS: starting iteration         1 with trial guess (lambda=  1.000000)
--------------------------------------------------------------------------------
 
                           -------------------------------
                                     Cell Contents
                           -------------------------------
 
            xxxxxxxxxxxxxxxxxxxxxxxxxxxxxxxxxxxxxxxxxxxxxxxxxxxxxxxxxxxxxxxxx
            x  Element         Atom        Fractional coordinates of atoms  x
            x                 Number           u          v          w      x
            x---------------------------------------------------------------x
            x  H                 1         0.416592   0.333285   0.649777   x
            x  C                 1         0.166470   0.083152   0.500002   x
            x  C                 2        -0.000100  -0.000144   0.500003   x
            x  C                 3         0.166445   0.333240   0.500002   x
            x  C                 4        -0.000174   0.249813   0.500003   x
            x  C                 5         0.166516   0.583414   0.500003   x
            x  C                 6        -0.000109   0.499946   0.500002   x
            x  C                 7         0.166536   0.833432   0.500003   x
            x  C                 8        -0.000053   0.750064   0.500002   x
            x  C                 9         0.416554   0.083147   0.500002   x
            x  C                10         0.249873  -0.000200   0.500003   x
            x  C                11         0.416593   0.333287   0.499992   x
            x  C                12         0.249842   0.249822   0.499997   x
            x  C                13         0.416658   0.583477   0.500002   x
            x  C                14         0.249889   0.499981   0.500003   x
            x  C                15         0.416653   0.833484   0.500002   x
            x  C                16         0.249955   0.750120   0.500002   x
            x  C                17         0.666714   0.083219   0.500002   x
            x  C                18         0.500012  -0.000153   0.500003   x
            x  C                19         0.666775   0.333351   0.500002   x
            x  C                20         0.500018   0.249859   0.499997   x
            x  C                21         0.666819   0.583510   0.500002   x
            x  C                22         0.500073   0.500055   0.499997   x
            x  C                23         0.666792   0.833536   0.500002   x
            x  C                24         0.500117   0.750193   0.500003   x
            x  C                25         0.916720   0.083268   0.500003   x
            x  C                26         0.750131  -0.000095   0.500003   x
            x  C                27         0.916774   0.333380   0.500002   x
            x  C                28         0.750152   0.249918   0.500003   x
            x  C                29         0.916838   0.583515   0.500003   x
            x  C                30         0.750218   0.500088   0.500003   x
            x  C                31         0.916770   0.833481   0.500003   x
            x  C                32         0.750201   0.750184   0.500003   x
            xxxxxxxxxxxxxxxxxxxxxxxxxxxxxxxxxxxxxxxxxxxxxxxxxxxxxxxxxxxxxxxxx
 
 
------------------------------------------------------------------------ <-- SCF
SCF loop      Energy           Fermi           Energy gain       Timer   <-- SCF
                               energy          per atom          (sec)   <-- SCF
------------------------------------------------------------------------ <-- SCF
Initial  -5.18551219E+003  0.00000000E+000                       384.71  <-- SCF
      1  -5.18551532E+003 -2.41741618E+000   9.48979661E-005     395.23  <-- SCF
      2  -5.18551533E+003 -2.41741620E+000   3.15248328E-008     404.47  <-- SCF
      3  -5.18551383E+003 -2.41738602E+000  -4.52893782E-005     413.79  <-- SCF
      4  -5.18551537E+003 -2.41734209E+000   4.66689442E-005     423.38  <-- SCF
      5  -5.18551544E+003 -2.41733399E+000   2.16329239E-006     432.77  <-- SCF
      6  -5.18551544E+003 -2.41735093E+000   1.71694429E-008     442.11  <-- SCF
      7  -5.18551544E+003 -2.41737034E+000  -5.96461925E-008     451.27  <-- SCF
      8  -5.18551544E+003 -2.41738701E+000  -2.77666296E-008     460.75  <-- SCF
------------------------------------------------------------------------ <-- SCF
 
Integrated Spin Density     =    0.999993     hbar/2                        
Integrated |Spin Density|   =     1.00839     hbar/2                        
 
Final energy, E             =  -5185.511612931     eV
Final free energy (E-TS)    =  -5185.515440604     eV
(energies not corrected for finite basis set)
 
NB est. 0K energy (E-0.5TS)      =  -5185.513526767     eV
 
(SEDC) Total Energy Correction : -0.272666E+01 eV

Dispersion corrected final energy*, Ecor          =  -5188.238270434     eV
Dispersion corrected final free energy* (Ecor-TS) =  -5188.242098106     eV
NB dispersion corrected est. 0K energy* (Ecor-0.5TS) =  -5188.240184270     eV
 
 ************************************** Forces **************************************
 *                                                                                  *
 *                           Cartesian components (eV/A)                            *
 * -------------------------------------------------------------------------------- *
 *                         x                    y                    z              *
 *                                                                                  *
 * H               1     -0.00035             -0.00056              0.06687         *
 * C               1     -0.00244             -0.00208             -0.00140         *
 * C               2      0.00170             -0.00245              0.00020         *
 * C               3     -0.00285              0.00095             -0.00145         *
 * C               4      0.00073             -0.00190              0.00017         *
 * C               5     -0.00557              0.00417              0.00012         *
 * C               6     -0.00207              0.00162             -0.00010         *
 * C               7     -0.00626              0.00084              0.00022         *
 * C               8     -0.00444              0.00173             -0.00007         *
 * C               9      0.00312             -0.00439             -0.00140         *
 * C              10      0.00025             -0.00059              0.00088         *
 * C              11      0.00066              0.00017             -0.02288         *
 * C              12     -0.00549             -0.00228             -0.01309         *
 * C              13     -0.00520              0.00190             -0.00146         *
 * C              14     -0.00433              0.00201              0.00088         *
 * C              15     -0.00434              0.00267              0.00010         *
 * C              16     -0.00623              0.00161             -0.00009         *
 * C              17      0.00585             -0.00405             -0.00016         *
 * C              18      0.00471             -0.00085              0.00016         *
 * C              19      0.00669             -0.00229             -0.00141         *
 * C              20      0.00508             -0.00309             -0.01308         *
 * C              21      0.00285              0.00148             -0.00142         *
 * C              22      0.00161              0.00276             -0.01311         *
 * C              23      0.00219              0.00000             -0.00015         *
 * C              24     -0.00261              0.00241              0.00015         *
 * C              25      0.00458             -0.00217             -0.00005         *
 * C              26      0.00651             -0.00143              0.00002         *
 * C              27      0.00218             -0.00018              0.00010         *
 * C              28      0.00398             -0.00330              0.00016         *
 * C              29     -0.00091              0.00288              0.00012         *
 * C              30      0.00265              0.00074              0.00085         *
 * C              31     -0.00200              0.00138              0.00012         *
 * C              32     -0.00026              0.00229              0.00019         *
 *                                                                                  *
 ************************************************************************************
  
 +------------+-------------+-------------+-----------------+ <-- min LBFGS
 |    Step    |   lambda    |   F.delta'  |    enthalpy     | <-- min LBFGS
 +------------+-------------+-------------+-----------------+ <-- min LBFGS
 |  previous  |    0.000000 |    0.048550 |    -5188.242096 | <-- min LBFGS
 | trial step |    1.000000 |    0.043675 |    -5188.242098 | <-- min LBFGS
 +------------+-------------+-------------+-----------------+ <-- min LBFGS
  

--------------------------------------------------------------------------------
 LBFGS: improving iteration         1 with line minimization (lambda=  9.958399)
--------------------------------------------------------------------------------
 
                           -------------------------------
                                     Cell Contents
                           -------------------------------
 
            xxxxxxxxxxxxxxxxxxxxxxxxxxxxxxxxxxxxxxxxxxxxxxxxxxxxxxxxxxxxxxxxx
            x  Element         Atom        Fractional coordinates of atoms  x
            x                 Number           u          v          w      x
            x---------------------------------------------------------------x
            x  H                 1         0.416586   0.333280   0.650028   x
            x  C                 1         0.166412   0.083130   0.499998   x
            x  C                 2        -0.000095  -0.000178   0.500003   x
            x  C                 3         0.166430   0.333251   0.499998   x
            x  C                 4        -0.000176   0.249791   0.500003   x
            x  C                 5         0.166481   0.583496   0.500003   x
            x  C                 6        -0.000115   0.499953   0.500002   x
            x  C                 7         0.166476   0.833454   0.500003   x
            x  C                 8        -0.000089   0.750064   0.500003   x
            x  C                 9         0.416525   0.083079   0.499998   x
            x  C                10         0.249896  -0.000207   0.500007   x
            x  C                11         0.416602   0.333305   0.499903   x
            x  C                12         0.249747   0.249781   0.499945   x
            x  C                13         0.416580   0.583498   0.499998   x
            x  C                14         0.249891   0.499989   0.500007   x
            x  C                15         0.416616   0.833553   0.500003   x
            x  C                16         0.249907   0.750090   0.500002   x
            x  C                17         0.666719   0.083162   0.500002   x
            x  C                18         0.500073  -0.000166   0.500003   x
            x  C                19         0.666826   0.333308   0.499998   x
            x  C                20         0.500070   0.249831   0.499945   x
            x  C                21         0.666847   0.583515   0.499998   x
            x  C                22         0.500138   0.500091   0.499945   x
            x  C                23         0.666834   0.833547   0.500002   x
            x  C                24         0.500122   0.750195   0.500003   x
            x  C                25         0.916745   0.083238   0.500003   x
            x  C                26         0.750185  -0.000112   0.500003   x
            x  C                27         0.916803   0.333386   0.500003   x
            x  C                28         0.750152   0.249898   0.500003   x
            x  C                29         0.916857   0.583563   0.500003   x
            x  C                30         0.750245   0.500110   0.500007   x
            x  C                31         0.916781   0.833520   0.500003   x
            x  C                32         0.750192   0.750213   0.500003   x
            xxxxxxxxxxxxxxxxxxxxxxxxxxxxxxxxxxxxxxxxxxxxxxxxxxxxxxxxxxxxxxxxx
 
 
------------------------------------------------------------------------ <-- SCF
SCF loop      Energy           Fermi           Energy gain       Timer   <-- SCF
                               energy          per atom          (sec)   <-- SCF
------------------------------------------------------------------------ <-- SCF
Initial  -5.18550068E+003  0.00000000E+000                       466.18  <-- SCF
      1  -5.18544707E+003 -2.41696915E+000  -1.62476978E-003     476.06  <-- SCF
      2  -5.18544927E+003 -2.41702231E+000   6.69159801E-005     487.39  <-- SCF
      3  -5.18543102E+003 -2.41643182E+000  -5.53195320E-004     497.87  <-- SCF
      4  -5.18550197E+003 -2.41621623E+000   2.14999788E-003     507.77  <-- SCF
      5  -5.18550878E+003 -2.41609719E+000   2.06284772E-004     517.89  <-- SCF
      6  -5.18551255E+003 -2.41613544E+000   1.14398029E-004     527.39  <-- SCF
      7  -5.18551350E+003 -2.41624697E+000   2.88773605E-005     537.43  <-- SCF
      8  -5.18551447E+003 -2.41643331E+000   2.92740216E-005     547.48  <-- SCF
      9  -5.18551486E+003 -2.41669388E+000   1.19083529E-005     557.64  <-- SCF
     10  -5.18551499E+003 -2.41694127E+000   3.75268930E-006     567.81  <-- SCF
     11  -5.18551501E+003 -2.41698687E+000   6.44825539E-007     577.07  <-- SCF
     12  -5.18551501E+003 -2.41701882E+000  -1.43359144E-008     586.43  <-- SCF
------------------------------------------------------------------------ <-- SCF
 
Integrated Spin Density     =    0.999998     hbar/2                        
Integrated |Spin Density|   =     1.00840     hbar/2                        
 
Final energy, E             =  -5185.511263984     eV
Final free energy (E-TS)    =  -5185.515008328     eV
(energies not corrected for finite basis set)
 
NB est. 0K energy (E-0.5TS)      =  -5185.513136156     eV
 
(SEDC) Total Energy Correction : -0.272647E+01 eV

Dispersion corrected final energy*, Ecor          =  -5188.237731431     eV
Dispersion corrected final free energy* (Ecor-TS) =  -5188.241475775     eV
NB dispersion corrected est. 0K energy* (Ecor-0.5TS) =  -5188.239603603     eV
 
 ************************************** Forces **************************************
 *                                                                                  *
 *                           Cartesian components (eV/A)                            *
 * -------------------------------------------------------------------------------- *
 *                         x                    y                    z              *
 *                                                                                  *
 * H               1     -0.00034             -0.00058              0.06511         *
 * C               1      0.03001              0.00238             -0.00509         *
 * C               2     -0.00865              0.00973              0.00087         *
 * C               3     -0.00288             -0.00189             -0.00506         *
 * C               4     -0.00221              0.00265              0.00083         *
 * C               5      0.03368             -0.04237              0.00121         *
 * C               6     -0.00886              0.00921             -0.00014         *
 * C               7      0.02019             -0.01343              0.00118         *
 * C               8     -0.00161              0.01763             -0.00008         *
 * C               9      0.02444              0.02549             -0.00507         *
 * C              10     -0.02920              0.00212             -0.00080         *
 * C              11      0.00658             -0.01624             -0.01566         *
 * C              12      0.03254              0.01935             -0.00905         *
 * C              13      0.05181             -0.00308             -0.00507         *
 * C              14     -0.04052              0.01243             -0.00088         *
 * C              15      0.04020             -0.04307              0.00133         *
 * C              16     -0.02254              0.04598             -0.00008         *
 * C              17      0.01959              0.01679             -0.00030         *
 * C              18     -0.03211              0.00435              0.00079         *
 * C              19     -0.01868              0.02028             -0.00506         *
 * C              20     -0.02651             -0.00290             -0.00902         *
 * C              21     -0.00163              0.00901             -0.00509         *
 * C              22     -0.03894             -0.00913             -0.00906         *
 * C              23     -0.02037             -0.01110             -0.00030         *
 * C              24     -0.03043              0.02220              0.00074         *
 * C              25     -0.00176              0.00894             -0.00033         *
 * C              26     -0.00871              0.00300             -0.00053         *
 * C              27     -0.00843             -0.00843              0.00133         *
 * C              28      0.02770             -0.01263              0.00079         *
 * C              29     -0.00317             -0.02025              0.00119         *
 * C              30      0.00729             -0.01437             -0.00087         *
 * C              31     -0.01023             -0.02610              0.00139         *
 * C              32      0.02376             -0.00600              0.00079         *
 *                                                                                  *
 ************************************************************************************
  
 +------------+-------------+-------------+-----------------+ <-- min LBFGS
 |    Step    |   lambda    |   F.delta'  |    enthalpy     | <-- min LBFGS
 +------------+-------------+-------------+-----------------+ <-- min LBFGS
 |  previous  |    0.000000 |    0.048550 |    -5188.242096 | <-- min LBFGS
 | trial step |    1.000000 |    0.043675 |    -5188.242098 | <-- min LBFGS
 |  line step |    9.958399 |    0.001548 |    -5188.241476 | <-- min LBFGS
 +------------+-------------+-------------+-----------------+ <-- min LBFGS
  
 LBFGS: reverting to earlier configuration
 
                           -------------------------------
                                     Cell Contents
                           -------------------------------
 
            xxxxxxxxxxxxxxxxxxxxxxxxxxxxxxxxxxxxxxxxxxxxxxxxxxxxxxxxxxxxxxxxx
            x  Element         Atom        Fractional coordinates of atoms  x
            x                 Number           u          v          w      x
            x---------------------------------------------------------------x
            x  H                 1         0.416592   0.333285   0.649777   x
            x  C                 1         0.166470   0.083152   0.500002   x
            x  C                 2        -0.000100  -0.000144   0.500003   x
            x  C                 3         0.166445   0.333240   0.500002   x
            x  C                 4        -0.000174   0.249813   0.500003   x
            x  C                 5         0.166516   0.583414   0.500003   x
            x  C                 6        -0.000109   0.499946   0.500002   x
            x  C                 7         0.166536   0.833432   0.500003   x
            x  C                 8        -0.000053   0.750064   0.500002   x
            x  C                 9         0.416554   0.083147   0.500002   x
            x  C                10         0.249873  -0.000200   0.500003   x
            x  C                11         0.416593   0.333287   0.499992   x
            x  C                12         0.249842   0.249822   0.499997   x
            x  C                13         0.416658   0.583477   0.500002   x
            x  C                14         0.249889   0.499981   0.500003   x
            x  C                15         0.416653   0.833484   0.500002   x
            x  C                16         0.249955   0.750120   0.500002   x
            x  C                17         0.666714   0.083219   0.500002   x
            x  C                18         0.500012  -0.000153   0.500003   x
            x  C                19         0.666775   0.333351   0.500002   x
            x  C                20         0.500018   0.249859   0.499997   x
            x  C                21         0.666819   0.583510   0.500002   x
            x  C                22         0.500073   0.500055   0.499997   x
            x  C                23         0.666792   0.833536   0.500002   x
            x  C                24         0.500117   0.750193   0.500003   x
            x  C                25         0.916720   0.083268   0.500003   x
            x  C                26         0.750131  -0.000095   0.500003   x
            x  C                27         0.916774   0.333380   0.500002   x
            x  C                28         0.750152   0.249918   0.500003   x
            x  C                29         0.916838   0.583515   0.500003   x
            x  C                30         0.750218   0.500088   0.500003   x
            x  C                31         0.916770   0.833481   0.500003   x
            x  C                32         0.750201   0.750184   0.500003   x
            xxxxxxxxxxxxxxxxxxxxxxxxxxxxxxxxxxxxxxxxxxxxxxxxxxxxxxxxxxxxxxxxx
 
 
 LBFGS: finished iteration     1 with enthalpy= -5.18824210E+003 eV
  
 +-----------+-----------------+-----------------+------------+-----+ <-- LBFGS
 | Parameter |      value      |    tolerance    |    units   | OK? | <-- LBFGS
 +-----------+-----------------+-----------------+------------+-----+ <-- LBFGS
 |  dE/ion   |   7.667707E-008 |   2.000000E-005 |         eV | Yes | <-- LBFGS
 |  |F|max   |   6.687694E-002 |   1.000000E-002 |       eV/A | No  | <-- LBFGS
 |  |dR|max  |   5.614515E-004 |   1.000000E-003 |          A | Yes | <-- LBFGS
 +-----------+-----------------+-----------------+------------+-----+ <-- LBFGS
  

================================================================================
 Starting LBFGS iteration          2 ...
================================================================================
  
 +------------+-------------+-------------+-----------------+ <-- min LBFGS
 |    Step    |   lambda    |   F.delta'  |    enthalpy     | <-- min LBFGS
 +------------+-------------+-------------+-----------------+ <-- min LBFGS
 |  previous  |    0.000000 |    0.049362 |    -5188.242098 | <-- min LBFGS
 +------------+-------------+-------------+-----------------+ <-- min LBFGS
  

--------------------------------------------------------------------------------
 LBFGS: starting iteration         2 with trial guess (lambda=  1.000000)
--------------------------------------------------------------------------------
 
                           -------------------------------
                                     Cell Contents
                           -------------------------------
 
            xxxxxxxxxxxxxxxxxxxxxxxxxxxxxxxxxxxxxxxxxxxxxxxxxxxxxxxxxxxxxxxxx
            x  Element         Atom        Fractional coordinates of atoms  x
            x                 Number           u          v          w      x
            x---------------------------------------------------------------x
            x  H                 1         0.416583   0.333277   0.650193   x
            x  C                 1         0.166408   0.083120   0.499994   x
            x  C                 2        -0.000095  -0.000186   0.500004   x
            x  C                 3         0.166417   0.333255   0.499994   x
            x  C                 4        -0.000178   0.249782   0.500004   x
            x  C                 5         0.166470   0.583500   0.500003   x
            x  C                 6        -0.000122   0.499966   0.500002   x
            x  C                 7         0.166455   0.833452   0.500004   x
            x  C                 8        -0.000102   0.750081   0.500002   x
            x  C                 9         0.416543   0.083067   0.499994   x
            x  C                10         0.249885  -0.000209   0.500009   x
            x  C                11         0.416604   0.333299   0.499848   x
            x  C                12         0.249732   0.249777   0.499914   x
            x  C                13         0.416580   0.583507   0.499994   x
            x  C                14         0.249864   0.500005   0.500009   x
            x  C                15         0.416609   0.833548   0.500003   x
            x  C                16         0.249884   0.750119   0.500002   x
            x  C                17         0.666746   0.083148   0.500002   x
            x  C                18         0.500081  -0.000168   0.500004   x
            x  C                19         0.666848   0.333305   0.499994   x
            x  C                20         0.500074   0.249814   0.499914   x
            x  C                21         0.666865   0.583527   0.499994   x
            x  C                22         0.500136   0.500101   0.499914   x
            x  C                23         0.666834   0.833542   0.500002   x
            x  C                24         0.500110   0.750217   0.500003   x
            x  C                25         0.916761   0.083231   0.500002   x
            x  C                26         0.750209  -0.000119   0.500003   x
            x  C                27         0.916807   0.333382   0.500003   x
            x  C                28         0.750170   0.249875   0.500003   x
            x  C                29         0.916855   0.583569   0.500003   x
            x  C                30         0.750259   0.500107   0.500009   x
            x  C                31         0.916766   0.833516   0.500003   x
            x  C                32         0.750205   0.750222   0.500004   x
            xxxxxxxxxxxxxxxxxxxxxxxxxxxxxxxxxxxxxxxxxxxxxxxxxxxxxxxxxxxxxxxxx
 
 
------------------------------------------------------------------------ <-- SCF
SCF loop      Energy           Fermi           Energy gain       Timer   <-- SCF
                               energy          per atom          (sec)   <-- SCF
------------------------------------------------------------------------ <-- SCF
Initial  -5.18548729E+003  0.00000000E+000                       592.04  <-- SCF
      1  -5.18536980E+003 -2.41687415E+000  -3.56031741E-003     602.06  <-- SCF
      2  -5.18537285E+003 -2.41693500E+000   9.25344142E-005     614.62  <-- SCF
      3  -5.18537210E+003 -2.41617826E+000  -2.26762979E-005     625.26  <-- SCF
      4  -5.18549833E+003 -2.41603085E+000   3.82498606E-003     635.46  <-- SCF
      5  -5.18550385E+003 -2.41593722E+000   1.67338414E-004     645.61  <-- SCF
      6  -5.18551033E+003 -2.41596980E+000   1.96478851E-004     655.23  <-- SCF
      7  -5.18551314E+003 -2.41602836E+000   8.50345495E-005     665.19  <-- SCF
      8  -5.18551362E+003 -2.41607753E+000   1.46933316E-005     675.49  <-- SCF
      9  -5.18551376E+003 -2.41597780E+000   4.05029320E-006     684.30  <-- SCF
     10  -5.18551382E+003 -2.41599694E+000   1.91098510E-006     692.88  <-- SCF
     11  -5.18551342E+003 -2.41619401E+000  -1.20771682E-005     702.35  <-- SCF
     12  -5.18551383E+003 -2.41628128E+000   1.23970890E-005     712.39  <-- SCF
     13  -5.18551430E+003 -2.41644583E+000   1.41410118E-005     722.22  <-- SCF
     14  -5.18551463E+003 -2.41660044E+000   1.00811728E-005     732.32  <-- SCF
     15  -5.18551488E+003 -2.41676098E+000   7.42295714E-006     742.33  <-- SCF
     16  -5.18551500E+003 -2.41689832E+000   3.89100823E-006     752.01  <-- SCF
     17  -5.18551505E+003 -2.41695331E+000   1.33053145E-006     761.73  <-- SCF
     18  -5.18551508E+003 -2.41701376E+000   9.56555697E-007     771.45  <-- SCF
     19  -5.18551509E+003 -2.41706665E+000   3.36690258E-007     781.20  <-- SCF
     20  -5.18551510E+003 -2.41710487E+000   2.75450451E-007     790.89  <-- SCF
------------------------------------------------------------------------ <-- SCF
 
Integrated Spin Density     =    0.999985     hbar/2                        
Integrated |Spin Density|   =     1.00798     hbar/2                        
 
Final energy, E             =  -5185.511325398     eV
Final free energy (E-TS)    =  -5185.515099695     eV
(energies not corrected for finite basis set)
 
NB est. 0K energy (E-0.5TS)      =  -5185.513212546     eV
 
(SEDC) Total Energy Correction : -0.272644E+01 eV

Dispersion corrected final energy*, Ecor          =  -5188.237766934     eV
Dispersion corrected final free energy* (Ecor-TS) =  -5188.241541231     eV
NB dispersion corrected est. 0K energy* (Ecor-0.5TS) =  -5188.239654083     eV
 
 ************************************** Forces **************************************
 *                                                                                  *
 *                           Cartesian components (eV/A)                            *
 * -------------------------------------------------------------------------------- *
 *                         x                    y                    z              *
 *                                                                                  *
 * H               1     -0.00034             -0.00058              0.06441         *
 * C               1      0.02879              0.00694             -0.00686         *
 * C               2     -0.00796              0.01063              0.00106         *
 * C               3      0.00035             -0.00051             -0.00679         *
 * C               4     -0.00193              0.00503              0.00101         *
 * C               5      0.02636             -0.03188              0.00168         *
 * C               6     -0.00498              0.00220              0.00011         *
 * C               7      0.01812             -0.00589              0.00159         *
 * C               8      0.00153              0.00806              0.00019         *
 * C               9      0.01239              0.02566             -0.00684         *
 * C              10     -0.01973              0.00403             -0.00207         *
 * C              11      0.00325             -0.01554             -0.01107         *
 * C              12      0.03824              0.02233             -0.00730         *
 * C              13      0.04284             -0.00230             -0.00682         *
 * C              14     -0.02387              0.00804             -0.00219         *
 * C              15      0.02930             -0.03550              0.00203         *
 * C              16     -0.00822              0.03241              0.00019         *
 * C              17      0.01065              0.01611             -0.00026         *
 * C              18     -0.02463              0.00270              0.00097         *
 * C              19     -0.02220              0.01459             -0.00684         *
 * C              20     -0.02506              0.00488             -0.00723         *
 * C              21     -0.00652              0.00306             -0.00686         *
 * C              22     -0.03216             -0.01194             -0.00729         *
 * C              23     -0.02250             -0.00842             -0.00027         *
 * C              24     -0.01747              0.01066              0.00090         *
 * C              25     -0.00509              0.01057             -0.00035         *
 * C              26     -0.01137              0.00012             -0.00068         *
 * C              27     -0.00781             -0.00519              0.00203         *
 * C              28      0.02051             -0.00609              0.00097         *
 * C              29     -0.00195             -0.01637              0.00167         *
 * C              30      0.00091             -0.01473             -0.00217         *
 * C              31     -0.00508             -0.02012              0.00211         *
 * C              32      0.01562             -0.01294              0.00096         *
 *                                                                                  *
 ************************************************************************************
  
 +------------+-------------+-------------+-----------------+ <-- min LBFGS
 |    Step    |   lambda    |   F.delta'  |    enthalpy     | <-- min LBFGS
 +------------+-------------+-------------+-----------------+ <-- min LBFGS
 |  previous  |    0.000000 |    0.049362 |    -5188.242098 | <-- min LBFGS
 | trial step |    1.000000 |    0.017567 |    -5188.241541 | <-- min LBFGS
 +------------+-------------+-------------+-----------------+ <-- min LBFGS
  
 LBFGS: WARNING - trial step suggests complex energy landscape
                 in which simple line minimization will fail.
  
               - This is usually an indication that the forces/streses
                 are not accurate enough. Consider making the following changes:
  
                 1) Increase cutoff_energy or basis_precision
                 2) Reduce elec_energy_tol and/or elec_force_tol
                 3) Increase grid_scale
                 4) Increase fine_grid_scale
  
               - Proceeding with a bisection search to find root instead.
  

--------------------------------------------------------------------------------
 LBFGS: improving iteration         2 with bisection search (lambda=  0.500000)
--------------------------------------------------------------------------------
 
                           -------------------------------
                                     Cell Contents
                           -------------------------------
 
            xxxxxxxxxxxxxxxxxxxxxxxxxxxxxxxxxxxxxxxxxxxxxxxxxxxxxxxxxxxxxxxxx
            x  Element         Atom        Fractional coordinates of atoms  x
            x                 Number           u          v          w      x
            x---------------------------------------------------------------x
            x  H                 1         0.416587   0.333281   0.649985   x
            x  C                 1         0.166439   0.083136   0.499998   x
            x  C                 2        -0.000097  -0.000165   0.500003   x
            x  C                 3         0.166431   0.333248   0.499998   x
            x  C                 4        -0.000176   0.249798   0.500003   x
            x  C                 5         0.166493   0.583457   0.500003   x
            x  C                 6        -0.000115   0.499956   0.500002   x
            x  C                 7         0.166495   0.833442   0.500003   x
            x  C                 8        -0.000077   0.750073   0.500002   x
            x  C                 9         0.416549   0.083107   0.499998   x
            x  C                10         0.249879  -0.000204   0.500006   x
            x  C                11         0.416599   0.333293   0.499920   x
            x  C                12         0.249787   0.249800   0.499955   x
            x  C                13         0.416619   0.583492   0.499998   x
            x  C                14         0.249876   0.499993   0.500006   x
            x  C                15         0.416631   0.833516   0.500003   x
            x  C                16         0.249919   0.750119   0.500002   x
            x  C                17         0.666730   0.083183   0.500002   x
            x  C                18         0.500046  -0.000161   0.500003   x
            x  C                19         0.666811   0.333328   0.499998   x
            x  C                20         0.500046   0.249836   0.499955   x
            x  C                21         0.666842   0.583519   0.499998   x
            x  C                22         0.500105   0.500078   0.499955   x
            x  C                23         0.666813   0.833539   0.500002   x
            x  C                24         0.500114   0.750205   0.500003   x
            x  C                25         0.916741   0.083249   0.500002   x
            x  C                26         0.750170  -0.000107   0.500003   x
            x  C                27         0.916790   0.333381   0.500003   x
            x  C                28         0.750161   0.249897   0.500003   x
            x  C                29         0.916846   0.583542   0.500003   x
            x  C                30         0.750238   0.500098   0.500006   x
            x  C                31         0.916768   0.833498   0.500003   x
            x  C                32         0.750203   0.750203   0.500003   x
            xxxxxxxxxxxxxxxxxxxxxxxxxxxxxxxxxxxxxxxxxxxxxxxxxxxxxxxxxxxxxxxxx
 
 
------------------------------------------------------------------------ <-- SCF
SCF loop      Energy           Fermi           Energy gain       Timer   <-- SCF
                               energy          per atom          (sec)   <-- SCF
------------------------------------------------------------------------ <-- SCF
Initial  -5.18550405E+003  0.00000000E+000                       796.22  <-- SCF
      1  -5.18541387E+003 -2.41703892E+000  -2.73289793E-003     806.59  <-- SCF
      2  -5.18541491E+003 -2.41706843E+000   3.15167507E-005     817.25  <-- SCF
      3  -5.18546397E+003 -2.41659580E+000   1.48689625E-003     827.50  <-- SCF
      4  -5.18550809E+003 -2.41632136E+000   1.33678901E-003     837.78  <-- SCF
      5  -5.18551166E+003 -2.41624844E+000   1.08365245E-004     847.61  <-- SCF
      6  -5.18551305E+003 -2.41627855E+000   4.19474651E-005     857.53  <-- SCF
      7  -5.18551471E+003 -2.41636560E+000   5.04835938E-005     867.42  <-- SCF
      8  -5.18551478E+003 -2.41638934E+000   2.10447073E-006     876.87  <-- SCF
      9  -5.18551488E+003 -2.41632980E+000   2.85647892E-006     886.31  <-- SCF
     10  -5.18551476E+003 -2.41651531E+000  -3.64737732E-006     896.05  <-- SCF
     11  -5.18551491E+003 -2.41662882E+000   4.71492876E-006     905.48  <-- SCF
     12  -5.18551488E+003 -2.41671494E+000  -8.81758902E-007     915.55  <-- SCF
     13  -5.18551501E+003 -2.41683129E+000   3.68107657E-006     925.39  <-- SCF
     14  -5.18551518E+003 -2.41695263E+000   5.23378403E-006     935.14  <-- SCF
     15  -5.18551524E+003 -2.41702269E+000   1.89745115E-006     945.09  <-- SCF
     16  -5.18551527E+003 -2.41710372E+000   9.61416854E-007     954.56  <-- SCF
     17  -5.18551530E+003 -2.41715717E+000   8.52669534E-007     964.36  <-- SCF
     18  -5.18551532E+003 -2.41719506E+000   4.88888382E-007     974.07  <-- SCF
     19  -5.18551533E+003 -2.41722997E+000   3.82219500E-007     983.85  <-- SCF
------------------------------------------------------------------------ <-- SCF
 
Integrated Spin Density     =     1.00000     hbar/2                        
Integrated |Spin Density|   =     1.00823     hbar/2                        
 
Final energy, E             =  -5185.511529272     eV
Final free energy (E-TS)    =  -5185.515330171     eV
(energies not corrected for finite basis set)
 
NB est. 0K energy (E-0.5TS)      =  -5185.513429722     eV
 
(SEDC) Total Energy Correction : -0.272656E+01 eV

Dispersion corrected final energy*, Ecor          =  -5188.238091051     eV
Dispersion corrected final free energy* (Ecor-TS) =  -5188.241891950     eV
NB dispersion corrected est. 0K energy* (Ecor-0.5TS) =  -5188.239991501     eV
 
 ************************************** Forces **************************************
 *                                                                                  *
 *                           Cartesian components (eV/A)                            *
 * -------------------------------------------------------------------------------- *
 *                         x                    y                    z              *
 *                                                                                  *
 * H               1     -0.00035             -0.00057              0.06551         *
 * C               1      0.01314              0.00243             -0.00411         *
 * C               2     -0.00309              0.00407              0.00066         *
 * C               3     -0.00125              0.00024             -0.00409         *
 * C               4     -0.00057              0.00155              0.00062         *
 * C               5      0.01035             -0.01378              0.00093         *
 * C               6     -0.00353              0.00191              0.00003         *
 * C               7      0.00587             -0.00250              0.00093         *
 * C               8     -0.00148              0.00488              0.00009         *
 * C               9      0.00773              0.01061             -0.00409         *
 * C              10     -0.00970              0.00175             -0.00057         *
 * C              11      0.00194             -0.00769             -0.01740         *
 * C              12      0.01631              0.01000             -0.01026         *
 * C              13      0.01877             -0.00022             -0.00411         *
 * C              14     -0.01406              0.00501             -0.00063         *
 * C              15      0.01243             -0.01635              0.00109         *
 * C              16     -0.00723              0.01696              0.00008         *
 * C              17      0.00826              0.00599             -0.00019         *
 * C              18     -0.00991              0.00092              0.00060         *
 * C              19     -0.00771              0.00612             -0.00410         *
 * C              20     -0.00994              0.00087             -0.01021         *
 * C              21     -0.00183              0.00225             -0.00412         *
 * C              22     -0.01524             -0.00453             -0.01027         *
 * C              23     -0.01012             -0.00421             -0.00019         *
 * C              24     -0.01002              0.00652              0.00056         *
 * C              25     -0.00023              0.00418             -0.00018         *
 * C              26     -0.00238             -0.00067             -0.00031         *
 * C              27     -0.00279             -0.00268              0.00109         *
 * C              28      0.01222             -0.00469              0.00059         *
 * C              29     -0.00144             -0.00671              0.00092         *
 * C              30      0.00176             -0.00700             -0.00063         *
 * C              31     -0.00354             -0.00933              0.00115         *
 * C              32      0.00764             -0.00532              0.00060         *
 *                                                                                  *
 ************************************************************************************
  
 +------------+-------------+-------------+-----------------+ <-- min LBFGS
 |    Step    |   lambda    |   F.delta'  |    enthalpy     | <-- min LBFGS
 +------------+-------------+-------------+-----------------+ <-- min LBFGS
 |  previous  |    0.000000 |    0.049362 |    -5188.242098 | <-- min LBFGS
 | trial step |    0.500000 |    0.033537 |    -5188.241892 | <-- min LBFGS
 +------------+-------------+-------------+-----------------+ <-- min LBFGS
  

--------------------------------------------------------------------------------
 LBFGS: improving iteration         2 with bisection search (lambda=  0.250000)
--------------------------------------------------------------------------------
 
                           -------------------------------
                                     Cell Contents
                           -------------------------------
 
            xxxxxxxxxxxxxxxxxxxxxxxxxxxxxxxxxxxxxxxxxxxxxxxxxxxxxxxxxxxxxxxxx
            x  Element         Atom        Fractional coordinates of atoms  x
            x                 Number           u          v          w      x
            x---------------------------------------------------------------x
            x  H                 1         0.416589   0.333283   0.649881   x
            x  C                 1         0.166454   0.083144   0.500000   x
            x  C                 2        -0.000099  -0.000155   0.500003   x
            x  C                 3         0.166438   0.333244   0.500000   x
            x  C                 4        -0.000175   0.249805   0.500003   x
            x  C                 5         0.166505   0.583435   0.500003   x
            x  C                 6        -0.000112   0.499951   0.500002   x
            x  C                 7         0.166516   0.833437   0.500003   x
            x  C                 8        -0.000065   0.750069   0.500002   x
            x  C                 9         0.416551   0.083127   0.500000   x
            x  C                10         0.249876  -0.000202   0.500004   x
            x  C                11         0.416596   0.333290   0.499956   x
            x  C                12         0.249815   0.249811   0.499976   x
            x  C                13         0.416638   0.583484   0.500000   x
            x  C                14         0.249883   0.499987   0.500004   x
            x  C                15         0.416642   0.833500   0.500003   x
            x  C                16         0.249937   0.750119   0.500002   x
            x  C                17         0.666722   0.083201   0.500002   x
            x  C                18         0.500029  -0.000157   0.500003   x
            x  C                19         0.666793   0.333339   0.500000   x
            x  C                20         0.500032   0.249847   0.499976   x
            x  C                21         0.666830   0.583514   0.500000   x
            x  C                22         0.500089   0.500066   0.499976   x
            x  C                23         0.666803   0.833538   0.500002   x
            x  C                24         0.500115   0.750199   0.500003   x
            x  C                25         0.916730   0.083259   0.500002   x
            x  C                26         0.750151  -0.000101   0.500003   x
            x  C                27         0.916782   0.333380   0.500003   x
            x  C                28         0.750157   0.249907   0.500003   x
            x  C                29         0.916842   0.583528   0.500003   x
            x  C                30         0.750228   0.500093   0.500004   x
            x  C                31         0.916769   0.833490   0.500003   x
            x  C                32         0.750202   0.750194   0.500003   x
            xxxxxxxxxxxxxxxxxxxxxxxxxxxxxxxxxxxxxxxxxxxxxxxxxxxxxxxxxxxxxxxxx
 
 
------------------------------------------------------------------------ <-- SCF
SCF loop      Energy           Fermi           Energy gain       Timer   <-- SCF
                               energy          per atom          (sec)   <-- SCF
------------------------------------------------------------------------ <-- SCF
Initial  -5.18551005E+003  0.00000000E+000                       989.15  <-- SCF
[...]
  C              10   up:     0.514   1.487   0.000   0.000   2.000    -0.000        0.000
                 10   dn:     0.513   1.487   0.000   0.000   2.000
  C              11   up:     0.514   1.486   0.000   0.000   2.000    -0.000       -0.000
                 11   dn:     0.514   1.486   0.000   0.000   2.000
  C              12   up:     0.514   1.486   0.000   0.000   2.000    -0.000       -0.000
                 12   dn:     0.514   1.486   0.000   0.000   2.000
  C              13   up:     0.514   1.486   0.000   0.000   2.000     0.000       -0.000
                 13   dn:     0.514   1.486   0.000   0.000   2.000
  C              14   up:     0.514   1.486   0.000   0.000   2.000    -0.000        0.000
                 14   dn:     0.514   1.486   0.000   0.000   2.000
  C              15   up:     0.513   1.486   0.000   0.000   2.000     0.000       -0.000
                 15   dn:     0.514   1.486   0.000   0.000   2.000
  C              16   up:     0.514   1.486   0.000   0.000   2.000     0.000       -0.000
                 16   dn:     0.514   1.486   0.000   0.000   2.000
  C              17   up:     0.514   1.486   0.000   0.000   2.000     0.000       -0.000
                 17   dn:     0.514   1.486   0.000   0.000   2.000
  C              18   up:     0.514   1.486   0.000   0.000   2.000     0.000       -0.000
                 18   dn:     0.514   1.486   0.000   0.000   2.000
  C              19   up:     0.514   1.486   0.000   0.000   2.000    -0.000       -0.000
                 19   dn:     0.514   1.486   0.000   0.000   2.000
  C              20   up:     0.514   1.486   0.000   0.000   2.000    -0.000       -0.000
                 20   dn:     0.514   1.486   0.000   0.000   2.000
  C              21   up:     0.514   1.486   0.000   0.000   2.000    -0.000       -0.000
                 21   dn:     0.514   1.486   0.000   0.000   2.000
  C              22   up:     0.514   1.486   0.000   0.000   2.000    -0.000       -0.000
                 22   dn:     0.514   1.486   0.000   0.000   2.000
  C              23   up:     0.514   1.487   0.000   0.000   2.000    -0.000       -0.000
                 23   dn:     0.514   1.486   0.000   0.000   2.000
  C              24   up:     0.514   1.486   0.000   0.000   2.000     0.000        0.000
                 24   dn:     0.514   1.486   0.000   0.000   2.000
  C              25   up:     0.513   1.487   0.000   0.000   2.000    -0.000       -0.000
                 25   dn:     0.513   1.487   0.000   0.000   2.000
  C              26   up:     0.514   1.486   0.000   0.000   2.000     0.000        0.000
                 26   dn:     0.513   1.487   0.000   0.000   2.000
  C              27   up:     0.513   1.487   0.000   0.000   2.000    -0.000       -0.000
                 27   dn:     0.514   1.487   0.000   0.000   2.000
  C              28   up:     0.514   1.486   0.000   0.000   2.000     0.000       -0.000
                 28   dn:     0.514   1.486   0.000   0.000   2.000
  C              29   up:     0.513   1.487   0.000   0.000   2.000     0.000       -0.000
                 29   dn:     0.514   1.486   0.000   0.000   2.000
  C              30   up:     0.514   1.486   0.000   0.000   2.000     0.000        0.000
                 30   dn:     0.514   1.486   0.000   0.000   2.000
  C              31   up:     0.513   1.487   0.000   0.000   2.000     0.000        0.000
                 31   dn:     0.513   1.487   0.000   0.000   2.000
  C              32   up:     0.514   1.486   0.000   0.000   2.000     0.000       -0.000
                 32   dn:     0.514   1.486   0.000   0.000   2.000
==============================================================================================
 
                 Bond                   Population        Spin       Length (A)
================================================================================
              C 15 -- C 18                   1.07         0.00          1.42367
              C 23 -- C 26                   1.07         0.00          1.42376
              C 7  -- C 10                   1.07         0.00          1.42394
              C 2  -- C 31                   1.07         0.00          1.42397
              C 8  -- C 31                   1.07         0.00          1.42514
              C 2  -- C 25                   1.07        -0.00          1.42515
              C 31 -- C 32                   1.07         0.00          1.42517
              C 1  -- C 2                    1.07         0.00          1.42518
              C 29 -- C 30                   1.07         0.00          1.42523
              C 4  -- C 25                   1.07         0.00          1.42524
              C 7  -- C 8                    1.07         0.00          1.42530
              C 25 -- C 26                   1.07         0.00          1.42533
              C 5  -- C 6                    1.07        -0.00          1.42534
              C 6  -- C 27                   1.07        -0.00          1.42537
              C 8  -- C 29                   1.07         0.00          1.42539
              C 3  -- C 4                    1.07         0.00          1.42541
              C 27 -- C 28                   1.07         0.00          1.42542
              C 9  -- C 10                   1.07         0.00          1.42566
              C 4  -- C 27                   1.07        -0.00          1.42581
              C 6  -- C 29                   1.07        -0.00          1.42592
              C 21 -- C 32                   1.07         0.00          1.42603
              C 15 -- C 16                   1.07         0.00          1.42610
              C 23 -- C 24                   1.07         0.00          1.42613
              C 17 -- C 18                   1.07        -0.00          1.42613
              C 1  -- C 12                   1.07         0.00          1.42628
              C 17 -- C 28                   1.07         0.00          1.42638
              C 21 -- C 22                   1.07         0.00          1.42638
              C 13 -- C 14                   1.07         0.00          1.42641
              C 7  -- C 16                   1.07        -0.00          1.42645
              C 13 -- C 24                   1.07         0.00          1.42647
              C 1  -- C 10                   1.07        -0.00          1.42647
              C 9  -- C 20                   1.07         0.00          1.42651
              C 11 -- C 12                   1.07         0.00          1.42652
              C 19 -- C 20                   1.07         0.00          1.42653
              C 19 -- C 30                   1.07         0.00          1.42655
              C 17 -- C 26                   1.07         0.00          1.42659
              C 5  -- C 16                   1.07         0.00          1.42672
              C 3  -- C 14                   1.07         0.00          1.42678
              C 11 -- C 22                   1.07         0.00          1.42680
              C 15 -- C 24                   1.07        -0.00          1.42687
              C 23 -- C 32                   1.07        -0.00          1.42698
              C 9  -- C 18                   1.07        -0.00          1.42707
              C 5  -- C 14                   1.07         0.00          1.42734
              C 3  -- C 12                   1.07        -0.00          1.42739
              C 21 -- C 30                   1.07        -0.00          1.42756
              C 19 -- C 28                   1.07        -0.00          1.42767
              C 11 -- C 20                   1.07         0.00          1.42807
              C 13 -- C 22                   1.07        -0.00          1.42815
              C 9  -- C 15                  -0.18        -0.00          2.46682
              C 10 -- C 16                  -0.18        -0.00          2.46698
              C 4  -- C 28                  -0.18        -0.00          2.46708
              C 18 -- C 24                  -0.18        -0.00          2.46709
              C 17 -- C 23                  -0.18         0.00          2.46714
              C 3  -- C 27                  -0.18        -0.00          2.46717
              C 1  -- C 7                   -0.18         0.00          2.46739
              C 26 -- C 32                  -0.18        -0.00          2.46740
              C 5  -- C 29                  -0.18         0.00          2.46748
              C 1  -- C 31                  -0.18         0.00          2.46748
              C 2  -- C 32                  -0.18        -0.00          2.46749
              C 7  -- C 31                  -0.18         0.00          2.46756
              C 6  -- C 30                  -0.18        -0.00          2.46758
              C 25 -- C 31                  -0.18         0.00          2.46773
              C 8  -- C 32                  -0.18        -0.00          2.46776
              C 2  -- C 8                   -0.18        -0.00          2.46804
              C 4  -- C 26                  -0.18         0.00          2.46804
              C 2  -- C 26                  -0.18        -0.00          2.46805
              C 1  -- C 25                  -0.18        -0.00          2.46810
              C 7  -- C 29                  -0.18         0.00          2.46835
              C 7  -- C 9                   -0.18        -0.00          2.46857
              C 8  -- C 30                  -0.18         0.00          2.46858
              C 3  -- C 25                  -0.18        -0.00          2.46863
              C 23 -- C 25                  -0.18         0.00          2.46871
              C 5  -- C 27                  -0.18        -0.00          2.46886
              C 8  -- C 10                  -0.18         0.00          2.46892
              C 6  -- C 28                  -0.18         0.00          2.46893
              C 16 -- C 18                  -0.18         0.00          2.46904
              C 24 -- C 26                  -0.18        -0.00          2.46914
              C 15 -- C 17                  -0.18        -0.00          2.46926
              C 21 -- C 31                  -0.18         0.00          2.46949
              C 6  -- C 14                  -0.18        -0.00          2.46950
              C 2  -- C 12                  -0.18         0.00          2.46960
              C 2  -- C 10                  -0.18        -0.00          2.46965
              C 2  -- C 4                   -0.18        -0.00          2.46967
              C 21 -- C 29                  -0.18         0.00          2.46976
              C 18 -- C 20                  -0.18        -0.00          2.46977
              C 8  -- C 16                  -0.18        -0.00          2.46980
              C 17 -- C 25                  -0.18         0.00          2.46982
              C 26 -- C 28                  -0.18        -0.00          2.47000
              C 19 -- C 27                  -0.18         0.00          2.47001
              C 4  -- C 12                  -0.18        -0.00          2.47003
              C 29 -- C 31                  -0.18         0.00          2.47004
              C 5  -- C 7                   -0.18         0.00          2.47005
              C 13 -- C 15                  -0.18         0.00          2.47022
              C 21 -- C 23                  -0.18         0.00          2.47026
              C 23 -- C 31                  -0.18         0.00          2.47028
              C 10 -- C 12                  -0.18        -0.00          2.47035
              C 1  -- C 9                   -0.18         0.00          2.47040
              C 10 -- C 20                  -0.18        -0.00          2.47055
              C 18 -- C 26                  -0.18        -0.00          2.47075
              C 5  -- C 15                  -0.18        -0.00          2.47078
              C 19 -- C 29                  -0.17        -0.00          2.47081
              C 18 -- C 28                  -0.18         0.00          2.47085
              C 5  -- C 13                  -0.18         0.00          2.47087
              C 22 -- C 30                  -0.18        -0.00          2.47093
              C 13 -- C 23                  -0.18        -0.00          2.47094
              C 22 -- C 32                  -0.18         0.00          2.47096
              C 1  -- C 11                  -0.18         0.00          2.47097
              C 27 -- C 29                  -0.17         0.00          2.47098
              C 6  -- C 8                   -0.17        -0.00          2.47101
              C 1  -- C 3                   -0.18         0.00          2.47106
              C 15 -- C 23                  -0.18         0.00          2.47108
              C 7  -- C 15                  -0.18         0.00          2.47108
              C 17 -- C 27                  -0.17        -0.00          2.47110
              C 17 -- C 19                  -0.18         0.00          2.47114
              C 20 -- C 28                  -0.18        -0.00          2.47115
              C 6  -- C 16                  -0.18         0.00          2.47119
              C 4  -- C 14                  -0.17        -0.00          2.47120
              C 24 -- C 32                  -0.18        -0.00          2.47120
              C 12 -- C 14                  -0.18        -0.00          2.47123
              C 30 -- C 32                  -0.18        -0.00          2.47123
              C 16 -- C 24                  -0.18        -0.00          2.47123
              C 25 -- C 27                  -0.17         0.00          2.47125
              C 4  -- C 6                   -0.17        -0.00          2.47128
              C 22 -- C 24                  -0.18        -0.00          2.47132
              C 28 -- C 30                  -0.18        -0.00          2.47137
              C 11 -- C 19                  -0.18        -0.00          2.47138
              C 14 -- C 16                  -0.18        -0.00          2.47146
              C 3  -- C 11                  -0.18         0.00          2.47146
              C 19 -- C 21                  -0.18         0.00          2.47146
              C 9  -- C 11                  -0.18         0.00          2.47147
              C 3  -- C 5                   -0.18         0.00          2.47150
              C 11 -- C 13                  -0.18         0.00          2.47151
              C 10 -- C 18                  -0.17        -0.00          2.47155
              C 14 -- C 24                  -0.18         0.00          2.47162
              C 9  -- C 17                  -0.17         0.00          2.47168
              C 3  -- C 13                  -0.17         0.00          2.47173
              C 12 -- C 20                  -0.17        -0.00          2.47176
              C 20 -- C 22                  -0.18        -0.00          2.47184
              C 13 -- C 21                  -0.18         0.00          2.47190
              C 20 -- C 30                  -0.17         0.00          2.47196
              C 12 -- C 22                  -0.17         0.00          2.47197
              C 14 -- C 22                  -0.18        -0.00          2.47200
              C 11 -- C 21                  -0.17        -0.00          2.47207
              C 9  -- C 19                  -0.17        -0.00          2.47227
              C 9  -- C 16                  -0.10        -0.00          2.84864
              C 2  -- C 7                   -0.10        -0.00          2.84915
              C 26 -- C 31                  -0.10        -0.00          2.84942
              C 18 -- C 23                  -0.10         0.00          2.84963
              C 17 -- C 24                  -0.10         0.00          2.84967
              C 25 -- C 32                  -0.10        -0.00          2.84978
              C 10 -- C 15                  -0.10        -0.00          2.85004
              C 8  -- C 21                  -0.10        -0.00          2.85005
              C 14 -- C 27                  -0.10        -0.00          2.85010
              C 4  -- C 17                  -0.10        -0.00          2.85014
              C 1  -- C 8                   -0.10        -0.00          2.85030
              C 12 -- C 25                  -0.10        -0.00          2.85055
              C 10 -- C 31                  -0.10        -0.00          2.85055
              C 6  -- C 19                  -0.10        -0.00          2.85062
              C 16 -- C 29                  -0.10        -0.00          2.85071
              C 25 -- C 28                  -0.10        -0.00          2.85114
              C 2  -- C 23                  -0.10        -0.00          2.85116
              C 5  -- C 8                   -0.10        -0.00          2.85116
              C 3  -- C 6                   -0.10        -0.00          2.85126
              C 27 -- C 30                  -0.10        -0.00          2.85142
              C 29 -- C 32                  -0.10        -0.00          2.85167
              C 1  -- C 4                   -0.10        -0.00          2.85176
              C 17 -- C 20                  -0.10        -0.00          2.85206
              C 2  -- C 3                   -0.10        -0.00          2.85234
              C 19 -- C 22                  -0.10        -0.00          2.85242
              C 13 -- C 16                  -0.10        -0.00          2.85255
              C 9  -- C 12                  -0.10        -0.00          2.85275
              C 21 -- C 24                  -0.10        -0.00          2.85275
              C 30 -- C 31                  -0.10        -0.00          2.85279
              C 11 -- C 14                  -0.10        -0.00          2.85291
              C 22 -- C 23                  -0.10        -0.00          2.85303
              C 10 -- C 11                  -0.10        -0.00          2.85308
              C 18 -- C 19                  -0.10        -0.00          2.85323
              C 6  -- C 7                   -0.10        -0.00          2.85324
              C 14 -- C 15                  -0.10        -0.00          2.85332
              C 26 -- C 27                  -0.10        -0.00          2.85348
              C 1  -- C 20                  -0.10        -0.00          2.85368
              C 15 -- C 26                  -0.10        -0.00          2.85384
              C 5  -- C 24                  -0.10        -0.00          2.85403
              C 12 -- C 13                  -0.10        -0.00          2.85409
              C 28 -- C 29                  -0.10        -0.00          2.85411
              C 7  -- C 18                  -0.10        -0.00          2.85422
              C 13 -- C 32                  -0.10        -0.00          2.85434
              C 11 -- C 30                  -0.10        -0.00          2.85442
              C 4  -- C 5                   -0.10        -0.00          2.85469
              C 9  -- C 28                  -0.10        -0.00          2.85501
              C 3  -- C 22                  -0.10         0.00          2.85505
              C 20 -- C 21                  -0.10        -0.00          2.85506
================================================================================
 

Writing analysis data to 4x4.castep_bin

Writing model to 4x4.check
 
 A BibTeX formatted list of references used in this run has been written to 
 4x4.bib
 
Initialisation time =      2.98 s
Calculation time    =  51033.14 s
Finalisation time   =      4.53 s
Total time          =  51040.65 s
Peak Memory Use     = 1065520 kB
  
Overall parallel efficiency rating: Mediocre (51%)                              
  
Data was distributed by:-
G-vector (16-way); efficiency rating: Mediocre (52%)                            
k-point (8-way); efficiency rating: Excellent (94%)                             
