 +-------------------------------------------------+
 |                                                 |
 |      CCC   AA    SSS  TTTTT  EEEEE  PPPP        |
 |     C     A  A  S       T    E      P   P       |
 |     C     AAAA   SS     T    EEE    PPPP        |
 |     C     A  A     S    T    E      P           |
 |      CCC  A  A  SSS     T    EEEEE  P           |
 |                                                 |
 +-------------------------------------------------+
 |                                                 |
 | Welcome to Academic Release CASTEP version 21.11|          
 | Ab Initio Total Energy Program                  |
 |                                                 |
 | Authors:                                        |
 | M. Segall, M. Probert, C. Pickard, P. Hasnip,   |
 | S. Clark, K. Refson, J. R. Yates, M. Payne      |
 |                                                 |
 | Contributors:                                   |
 | P. Lindan, P. Haynes, J. White, V. Milman,      |
 | N. Govind, M. Gibson, P. Tulip, V. Cocula,      |
 | B. Montanari, D. Quigley, M. Glover,            |
 | L. Bernasconi, A. Perlov, M. Plummer,           |
 | E. McNellis, J. Meyer, J. Gale, D. Jochym       |
 | J. Aarons, B. Walker, R. Gillen, D. Jones       |
 | T. Green, I. J. Bush, C. J. Armstrong,          |
 | E. J. Higgins, E. L. Brown, M. S. McFly,        |
 | J. Wilkins, B-C. Shih, P. J. P. Byrne,          |
 | R. J. Maurer, J. C. Womack, J. Dziedzic,        |
 | A. Bartok-Partay, L. LeBlanc                    |
 |                                                 |
 | Copyright (c) 2000 - 2021                       |
 |                                                 |
 |     Distributed under license from Cambridge    |
 |     Enterprise for academic use only.           |
 |                                                 |
 | Please cite                                     |
 |                                                 |
 |     "First principles methods using CASTEP"     |
 |                                                 |
 |         Zeitschrift fuer Kristallographie       |
 |           220(5-6) pp. 567-570 (2005)           |
 |                                                 |
 | S. J. Clark, M. D. Segall, C. J. Pickard,       |
 | P. J. Hasnip, M. J. Probert, K. Refson,         |
 | M. C. Payne                                     |
 |                                                 |
 |       in all publications arising from          |
 |              your use of CASTEP                 |
 |                                                 |
 +-------------------------------------------------+
 |                                                 |
 |              http://www.castep.org              |
 |                                                 |
 +-------------------------------------------------+
 
 
 
 Compiled for linux_x86_64_cray-XT on Tue, 01 Mar 2022 09:19:15 +0000
 from code version 7d4405a8a+  HEAD  Sat Nov 27 13:38:33 2021 +0000
 Compiler: Cray Fortran 12.0.3; Optimisation: fast
 MATHLIBS: LibSci (LAPACK version 3.6.1)
 FFT Lib : fftw3 version commercial-fftw-3.3.8-sse2-avx-avx2-avx2_128
 Fundamental constants values: CODATA 2014
 
 Run started: Sat, 29 Oct 2022 16:26:48 -0100
 
 Atomic calculation performed for H: 1s1
 
 Converged in 41 iterations to an ae energy of -12.488 eV
 
   ============================================================                
   | Pseudopotential Report - Date of generation 29-10-2022   |                
   ------------------------------------------------------------                
   | Element: H Ionic charge:  1.00 Level of theory: PBE      |                
   | Atomic Solver: Koelling-Harmon                           |                
   |                                                          |                
   |               Reference Electronic Structure             |                
   |         Orbital         Occupation         Energy        |                
   |            1s              1.000           -0.239        |                
   |                                                          |                
   |                 Pseudopotential Definition               |                
   |        Beta     l      e      Rc     scheme   norm       |                
   |          1      0   -0.239   0.803     qc      1         |                
   |         loc     1    0.000   0.803     pn      0         |                
   |                                                          |                
   | No charge augmentation                                   |                
   | No partial core correction                               |                
   ------------------------------------------------------------                
   | "1|0.8|14|16|19|10N(qc=8)"                               |                
   ------------------------------------------------------------                
   |      Author: Chris J. Pickard, Cambridge University      |                
   ============================================================                
 
 Atomic calculation performed for C: 1s2 2s2 2p2
 
 Converged in 54 iterations to an ae energy of -1027.632 eV
 
   ============================================================                
   | Pseudopotential Report - Date of generation 29-10-2022   |                
   ------------------------------------------------------------                
   | Element: C Ionic charge:  4.00 Level of theory: PBE      |                
   | Atomic Solver: Koelling-Harmon                           |                
   |                                                          |                
   |               Reference Electronic Structure             |                
   |         Orbital         Occupation         Energy        |                
   |            2s              2.000           -0.505        |                
   |            2p              2.000           -0.194        |                
   |                                                          |                
   |                 Pseudopotential Definition               |                
   |        Beta     l      e      Rc     scheme   norm       |                
   |          1      0   -0.505   1.201     qc      1         |                
   |         loc     1   -0.194   1.201     qc      1         |                
   |                                                          |                
   | No charge augmentation                                   |                
   | Partial core correction Rc = 0.839                       |                
   ------------------------------------------------------------                
   | "1|1.2|17|20|23|20N:21L(qc=8)"                           |                
   ------------------------------------------------------------                
   |      Author: Chris J. Pickard, Cambridge University      |                
   ============================================================                
 
 Pseudo atomic calculation performed for H 1s1
 
 Converged in 13 iterations to a total energy of -12.4790 eV
 
 Pseudo atomic calculation performed for C 2s2 2p2
 
 Converged in 18 iterations to a total energy of -152.4291 eV
 Calculation parallelised over 128 processes.
 Data is distributed by G-vector(128-way)

 ************************************ Title ************************************
 

 ***************************** General Parameters ******************************
  
 output verbosity                               : normal  (1)
 write checkpoint data to                       : 9x9.check
 type of calculation                            : transition state search
 stress calculation                             : off
 density difference calculation                 : off
 electron localisation func (ELF) calculation   : off
 Hirshfeld analysis                             : off
 polarisation (Berry phase) analysis            : off
 molecular orbital projected DOS                : off
 deltaSCF calculation                           : off
 unlimited duration calculation
 timing information                             : on
 memory usage estimate                          : on
 write extra output files                       : on
 write final potential to formatted file        : off
 write final density to formatted file          : off
 write structure in CELL formatted file         : on
 write BibTeX reference list                    : on
 write OTFG pseudopotential files               : on
 write electrostatic potential file             : on
 write bands file                               : on
 checkpoint writing                             : both castep_bin and check files
  
 output         length unit                     : A
 output           mass unit                     : amu
 output           time unit                     : ps
 output         charge unit                     : e
 output           spin unit                     : hbar/2
 output         energy unit                     : eV
 output          force unit                     : eV/A
 output       velocity unit                     : A/ps
 output       pressure unit                     : GPa
 output     inv_length unit                     : 1/A
 output      frequency unit                     : cm-1
 output force constant unit                     : eV/A**2
 output         volume unit                     : A**3
 output   IR intensity unit                     : (D/A)**2/amu
 output         dipole unit                     : D
 output         efield unit                     : eV/A/e
 output        entropy unit                     : J/mol/K
 output    efield chi2 unit                     : pm/V
  
 wavefunctions paging                           : none
 random number generator seed                   : randomised (162649023)
 data distribution                              : optimal for this architecture
 optimization strategy                          : maximize speed(+++)

 *********************** Exchange-Correlation Parameters ***********************
  
 using functional                               : Perdew Burke Ernzerhof
 relativistic treatment                         : Koelling-Harmon
 DFT+D: Semi-empirical dispersion correction    : on
 SEDC with                                      : MBD@rsSCS method

 ************************* Pseudopotential Parameters **************************
  
 pseudopotential representation                 : reciprocal space
 <beta|phi> representation                      : reciprocal space
 spin-orbit coupling                            : off

 **************************** Basis Set Parameters *****************************
  
 plane wave basis set cut-off                   :   800.0000   eV
 size of standard grid                          :     1.7500
 size of   fine   gmax                          :    25.3584   1/A
 finite basis set correction                    : none

 **************************** Electronic Parameters ****************************
  
 number of  electrons                           :  650.0    
 net charge of system                           :  0.000    
 treating system as non-spin-polarized
 number of bands                                :        488

 ********************* Electronic Minimization Parameters **********************
  
 Method: Treating system as metallic with density mixing treatment of electrons,
         and number of  SD  steps               :          1
         and number of  CG  steps               :          4
  
 total energy / atom convergence tol.           : 0.1000E-05   eV
 eigen-energy convergence tolerance             : 0.3361E-06   eV
 max force / atom convergence tol.              : ignored
 convergence tolerance window                   :          3   cycles
 max. number of SCF cycles                      :        100
 number of fixed-spin iterations                :         10
 smearing scheme                                : Gaussian
 smearing width                                 : 0.2000       eV
 Fermi energy convergence tolerance             : 0.2721E-13   eV
 periodic dipole correction                     : NONE

 ************************** Density Mixing Parameters **************************
  
 density-mixing scheme                          : Pulay
 max. length of mixing history                  :         20
 charge density mixing amplitude                : 0.8000    
 cut-off energy for mixing                      :  800.0       eV

 *********************** Population Analysis Parameters ************************
  
 Population analysis with cutoff                :  3.000       A
 Population analysis output                     : summary and pdos components

 ********************* Transition State Search Parameters **********************
  
 search method                                  : LSTQST
 LSTQST protocol                                : COMPLETELSTQST   
 max. number of QST iterations                  :         60
 max. number of CG  iterations                  :         60
 max. ionic |force| tolerance                   : 0.2571       eV/A
 max. ionic |displacement| tolerance            : 0.1000E-02   A

 *******************************************************************************
  
 
                           -------------------------------
                                      Unit Cell
                           -------------------------------
        Real Lattice(A)                      Reciprocal Lattice(1/A)
    22.2300000     0.0000000     0.0000000        0.282644413   0.163184826   0.000000000
   -11.1150000    19.2517450     0.0000000        0.000000000   0.326369652   0.000000000
     0.0000000     0.0000000    20.0340000        0.000000000   0.000000000   0.313626101
 
                       Lattice parameters(A)       Cell Angles
                    a =     22.230000          alpha =   90.000000
                    b =     22.230000          beta  =   90.000000
                    c =     20.034000          gamma =  120.000000
 
                       Current cell volume =          8573.876681       A**3
                                   density =             0.227173   AMU/A**3
                                           =             0.377229     g/cm^3
 
                           -------------------------------
                                     Cell Contents
                           -------------------------------
                         Total number of ions in cell =  164
                      Total number of species in cell =    2
                        Max number of any one species =  162
 
            xxxxxxxxxxxxxxxxxxxxxxxxxxxxxxxxxxxxxxxxxxxxxxxxxxxxxxxxxxxx
            x                          Reactant                        x
            xxxxxxxxxxxxxxxxxxxxxxxxxxxxxxxxxxxxxxxxxxxxxxxxxxxxxxxxxxxx
            x  Element    Atom        Fractional coordinates of atoms  x
            x            Number           u          v          w      x
            x----------------------------------------------------------x
            x  H            1         0.448481   0.450029   0.588887   x 
            x  H            2         0.327534   0.329054   0.588918   x 
            x  C            1         0.073735   0.036516   0.497783   x 
            x  C            2        -0.000092  -0.000185   0.497910   x 
            x  C            3         0.073842   0.147711   0.500171   x 
            x  C            4         0.000050   0.110941   0.499157   x 
            x  C            5         0.073884   0.259198   0.499940   x 
            x  C            6         0.000117   0.222195   0.499027   x 
            x  C            7         0.073817   0.370305   0.497088   x 
            x  C            8        -0.000112   0.333226   0.497452   x 
            x  C            9         0.073781   0.481449   0.496061   x 
            x  C           10        -0.000142   0.444361   0.496681   x 
            x  C           11         0.073838   0.592600   0.496747   x 
            x  C           12        -0.000081   0.555542   0.497032   x 
            x  C           13         0.073878   0.703743   0.497433   x 
            x  C           14        -0.000022   0.666720   0.497507   x 
            x  C           15         0.073849   0.814810   0.497577   x 
            x  C           16        -0.000058   0.777825   0.497758   x 
            x  C           17         0.073745   0.925715   0.497254   x 
            x  C           18        -0.000194   0.888842   0.497600   x 
            x  C           19         0.184565   0.036093   0.497208   x 
            x  C           20         0.110735  -0.000538   0.497193   x 
            x  C           21         0.184604   0.147146   0.500450   x 
            x  C           22         0.110679   0.110540   0.499161   x 
            x  C           23         0.184656   0.258746   0.506418   x 
            x  C           24         0.111402   0.222217   0.502151   x 
            x  C           25         0.184984   0.370495   0.500146   x 
            x  C           26         0.110975   0.333264   0.498648   x 
            x  C           27         0.184835   0.481524   0.495969   x 
            x  C           28         0.110826   0.444373   0.496042   x 
            x  C           29         0.184854   0.592642   0.495553   x 
            x  C           30         0.110807   0.555502   0.496007   x 
            x  C           31         0.184922   0.703763   0.496685   x 
            x  C           32         0.110859   0.666656   0.497026   x 
            x  C           33         0.184940   0.814844   0.497171   x 
            x  C           34         0.110862   0.777797   0.497461   x 
            x  C           35         0.184798   0.925662   0.496892   x 
            x  C           36         0.110812   0.888839   0.497231   x 
            x  C           37         0.295725   0.036249   0.496886   x 
            x  C           38         0.221735  -0.000638   0.496753   x 
            x  C           39         0.295438   0.147038   0.499718   x 
            x  C           40         0.221588   0.110208   0.498853   x 
            x  C           41         0.294653   0.256566   0.511690   x 
            x  C           42         0.221931   0.221238   0.506134   x 
            x  C           43         0.295121   0.370836   0.513306   x 
            x  C           44         0.222533   0.333723   0.506593   x 
            x  C           45         0.295967   0.481556   0.500449   x 
            x  C           46         0.222027   0.444438   0.498328   x 
            x  C           47         0.295976   0.592679   0.495984   x 
            x  C           48         0.221933   0.555563   0.495389   x 
            x  C           49         0.296076   0.703833   0.496020   x 
            x  C           50         0.221987   0.666719   0.495965   x 
            x  C           51         0.296124   0.814959   0.496802   x 
            x  C           52         0.222039   0.777872   0.496937   x 
            x  C           53         0.296011   0.925798   0.496909   x 
            x  C           54         0.222007   0.888871   0.496970   x 
            x  C           55         0.406939   0.036604   0.497308   x 
            x  C           56         0.332935  -0.000439   0.496911   x 
            x  C           57         0.406705   0.147593   0.498696   x 
            x  C           58         0.332758   0.110366   0.497959   x 
            x  C           59         0.406603   0.258414   0.505121   x 
            x  C           60         0.332293   0.221174   0.505356   x 
            x  C           61         0.408400   0.369157   0.519533   x 
            x  C           62         0.331840   0.331529   0.532882   x 
            x  C           63         0.406715   0.482431   0.513266   x 
            x  C           64         0.333151   0.444388   0.508356   x 
            x  C           65         0.407039   0.592555   0.500153   x 
            x  C           66         0.333081   0.555496   0.498334   x 
            x  C           67         0.407243   0.703811   0.497123   x 
            x  C           68         0.333128   0.666716   0.496051   x 
            x  C           69         0.407317   0.815040   0.497127   x 
            x  C           70         0.333233   0.777942   0.496606   x 
            x  C           71         0.407246   0.926005   0.497232   x 
            x  C           72         0.333223   0.889019   0.496987   x 
            x  C           73         0.518167   0.036793   0.498003   x 
            x  C           74         0.444160  -0.000204   0.497480   x 
            x  C           75         0.518074   0.147941   0.498135   x 
            x  C           76         0.443930   0.110802   0.497862   x 
            x  C           77         0.518243   0.259297   0.499847   x 
            x  C           78         0.443591   0.222193   0.500863   x 
            x  C           79         0.519145   0.370958   0.505128   x 
            x  C           80         0.443679   0.333879   0.509029   x 
            x  C           81         0.521022   0.482933   0.511696   x 
            x  C           82         0.446029   0.445721   0.532853   x 
            x  C           83         0.518834   0.592922   0.506465   x 
            x  C           84         0.443834   0.555019   0.506573   x 
            x  C           85         0.518395   0.703766   0.500031   x 
            x  C           86         0.444271   0.666586   0.498698   x 
            x  C           87         0.518475   0.814989   0.498337   x 
            x  C           88         0.444388   0.777923   0.497463   x 
            x  C           89         0.518453   0.926095   0.498157   x 
            x  C           90         0.444430   0.889138   0.497535   x 
            x  C           91         0.629429   0.036832   0.498737   x 
            x  C           92         0.555384  -0.000098   0.498353   x 
            x  C           93         0.629456   0.148066   0.498373   x 
            x  C           94         0.555149   0.111037   0.498139   x 
            x  C           95         0.629594   0.259444   0.498177   x 
            x  C           96         0.555037   0.222485   0.498472   x 
            x  C           97         0.629960   0.370835   0.498769   x 
            x  C           98         0.555349   0.333949   0.500893   x 
            x  C           99         0.630546   0.482142   0.499825   x 
            x  C          100         0.556397   0.445273   0.505395   x 
            x  C          101         0.630495   0.593038   0.500628   x 
            x  C          102         0.556367   0.555672   0.506214   x 
            x  C          103         0.629968   0.703866   0.500358   x 
            x  C          104         0.555386   0.666202   0.502269   x 
            x  C          105         0.629761   0.815061   0.499354   x 
            x  C          106         0.555453   0.777704   0.499111   x 
            x  C          107         0.629634   0.926090   0.499035   x 
            x  C          108         0.555603   0.889116   0.498540   x 
            x  C          109         0.740766   0.036869   0.499229   x 
            x  C          110         0.666613  -0.000108   0.499056   x 
            x  C          111         0.740794   0.148113   0.498723   x 
            x  C          112         0.666482   0.111058   0.498640   x 
            x  C          113         0.740840   0.259374   0.498020   x 
            x  C          114         0.666508   0.222368   0.498156   x 
            x  C          115         0.741035   0.370611   0.497380   x 
            x  C          116         0.666753   0.333595   0.497931   x 
            x  C          117         0.741403   0.481859   0.497000   x 
            x  C          118         0.667206   0.444798   0.498061   x 
            x  C          119         0.741607   0.593104   0.497395   x 
            x  C          120         0.667415   0.556024   0.499027   x 
            x  C          121         0.741302   0.704092   0.497954   x 
            x  C          122         0.667172   0.667011   0.499364   x 
            x  C          123         0.741000   0.815045   0.498592   x 
            x  C          124         0.666799   0.777817   0.499302   x 
            x  C          125         0.740931   0.926112   0.499186   x 
            x  C          126         0.666716   0.888980   0.499214   x 
            x  C          127         0.852065   0.036858   0.499169   x 
            x  C          128         0.777924  -0.000087   0.499295   x 
            x  C          129         0.852110   0.148138   0.499024   x 
            x  C          130         0.777896   0.111013   0.499053   x 
            x  C          131         0.852113   0.259335   0.498165   x 
            x  C          132         0.777892   0.222226   0.498347   x 
            x  C          133         0.852200   0.370541   0.497285   x 
            x  C          134         0.777999   0.333451   0.497528   x 
            x  C          135         0.852401   0.481771   0.496982   x 
            x  C          136         0.778238   0.444696   0.496997   x 
            x  C          137         0.852527   0.592967   0.496999   x 
            x  C          138         0.778451   0.555943   0.496900   x 
            x  C          139         0.852464   0.704045   0.497334   x 
            x  C          140         0.778407   0.667045   0.497353   x 
            x  C          141         0.852234   0.815053   0.497760   x 
            x  C          142         0.778115   0.778070   0.498010   x 
            x  C          143         0.852019   0.926071   0.498441   x 
            x  C          144         0.777966   0.889168   0.498749   x 
            x  C          145         0.963129   0.036894   0.498503   x 
            x  C          146         0.889077  -0.000089   0.498719   x 
            x  C          147         0.963133   0.148075   0.499263   x 
            x  C          148         0.889302   0.111089   0.499183   x 
            x  C          149         0.963206   0.259335   0.498310   x 
            x  C          150         0.889179   0.222219   0.498535   x 
            x  C          151         0.963149   0.370474   0.497173   x 
            x  C          152         0.889160   0.333399   0.497576   x 
            x  C          153         0.963224   0.481652   0.496902   x 
            x  C          154         0.889274   0.444604   0.497062   x 
            x  C          155         0.963321   0.592816   0.497259   x 
            x  C          156         0.889408   0.555803   0.497056   x 
            x  C          157         0.963347   0.703949   0.497624   x 
            x  C          158         0.889414   0.666975   0.497312   x 
            x  C          159         0.963185   0.814952   0.497739   x 
            x  C          160         0.889280   0.778057   0.497624   x 
            x  C          161         0.962929   0.925812   0.497739   x 
            x  C          162         0.889022   0.889023   0.497978   x 
            xxxxxxxxxxxxxxxxxxxxxxxxxxxxxxxxxxxxxxxxxxxxxxxxxxxxxxxxxxxx
 
            xxxxxxxxxxxxxxxxxxxxxxxxxxxxxxxxxxxxxxxxxxxxxxxxxxxxxxxxxxxx
            x                          Product                         x
            xxxxxxxxxxxxxxxxxxxxxxxxxxxxxxxxxxxxxxxxxxxxxxxxxxxxxxxxxxxx
            x  Element    Atom        Fractional coordinates of atoms  x
            x            Number           u          v          w      x
            x----------------------------------------------------------x
            x  H            1         0.399564   0.401221   0.685035   x 
            x  H            2         0.366209   0.367361   0.688959   x 
            x  C            1         0.073921   0.036835   0.499856   x 
            x  C            2        -0.000042  -0.000104   0.499488   x 
            x  C            3         0.073779   0.147898   0.500662   x 
            x  C            4        -0.000202   0.110867   0.500038   x 
            x  C            5         0.073717   0.259025   0.500567   x 
            x  C            6        -0.000261   0.221962   0.499818   x 
            x  C            7         0.073734   0.370203   0.499579   x 
            x  C            8        -0.000232   0.333153   0.498978   x 
            x  C            9         0.073758   0.481408   0.497892   x 
            x  C           10        -0.000192   0.444362   0.497608   x 
            x  C           11         0.073797   0.592615   0.496383   x 
            x  C           12        -0.000152   0.555554   0.496460   x 
            x  C           13         0.073828   0.703801   0.495955   x 
            x  C           14        -0.000129   0.666727   0.496258   x 
            x  C           15         0.073865   0.814960   0.496736   x 
            x  C           16        -0.000106   0.777873   0.496961   x 
            x  C           17         0.073853   0.925977   0.498307   x 
            x  C           18        -0.000132   0.888929   0.498287   x 
            x  C           19         0.184912   0.036681   0.499652   x 
            x  C           20         0.110903  -0.000225   0.499282   x 
            x  C           21         0.184938   0.147872   0.501326   x 
            x  C           22         0.110851   0.110867   0.500680   x 
            x  C           23         0.184893   0.259047   0.501970   x 
            x  C           24         0.110769   0.221984   0.501133   x 
            x  C           25         0.184869   0.370224   0.501365   x 
            x  C           26         0.110750   0.333136   0.500559   x 
            x  C           27         0.184874   0.481412   0.499795   x 
            x  C           28         0.110753   0.444329   0.499089   x 
            x  C           29         0.184893   0.592615   0.497784   x 
            x  C           30         0.110775   0.555520   0.497239   x 
            x  C           31         0.184919   0.703812   0.496366   x 
            x  C           32         0.110804   0.666713   0.496027   x 
            x  C           33         0.184976   0.814983   0.496412   x 
            x  C           34         0.110857   0.777908   0.496214   x 
            x  C           35         0.184951   0.925952   0.497762   x 
            x  C           36         0.110878   0.889020   0.497506   x 
            x  C           37         0.296009   0.036647   0.499366   x 
            x  C           38         0.221945  -0.000301   0.498916   x 
            x  C           39         0.296062   0.147821   0.501244   x 
            x  C           40         0.221950   0.110752   0.500811   x 
            x  C           41         0.296106   0.259057   0.502726   x 
            x  C           42         0.221979   0.221988   0.502158   x 
            x  C           43         0.296103   0.370263   0.502991   x 
            x  C           44         0.221959   0.333185   0.502245   x 
            x  C           45         0.296081   0.481455   0.501737   x 
            x  C           46         0.221942   0.444363   0.501052   x 
            x  C           47         0.296104   0.592654   0.499819   x 
            x  C           48         0.221949   0.555552   0.499138   x 
            x  C           49         0.296130   0.703862   0.497908   x 
            x  C           50         0.221968   0.666749   0.497239   x 
            x  C           51         0.296175   0.815035   0.497003   x 
            x  C           52         0.222025   0.777943   0.496422   x 
            x  C           53         0.296139   0.925996   0.497623   x 
            x  C           54         0.222057   0.889047   0.497151   x 
            x  C           55         0.407179   0.036677   0.498940   x 
            x  C           56         0.333093  -0.000276   0.498629   x 
            x  C           57         0.407220   0.147810   0.500671   x 
            x  C           58         0.333072   0.110722   0.500490   x 
            x  C           59         0.407280   0.259043   0.502398   x 
            x  C           60         0.333138   0.221957   0.502269   x 
            x  C           61         0.407313   0.370260   0.503376   x 
            x  C           62         0.333173   0.333196   0.503273   x 
            x  C           63         0.407299   0.481464   0.503063   x 
            x  C           64         0.333152   0.444399   0.502800   x 
            x  C           65         0.407317   0.592679   0.501456   x 
            x  C           66         0.333161   0.555585   0.501089   x 
            x  C           67         0.407358   0.703898   0.499645   x 
            x  C           68         0.333184   0.666791   0.499131   x 
            x  C           69         0.407401   0.815086   0.498201   x 
            x  C           70         0.333241   0.777996   0.497601   x 
            x  C           71         0.407350   0.926054   0.497931   x 
            x  C           72         0.333262   0.889102   0.497415   x 
            x  C           73         0.518391   0.036733   0.498647   x 
            x  C           74         0.444305  -0.000220   0.498453   x 
            x  C           75         0.518433   0.147844   0.499764   x 
            x  C           76         0.444267   0.110751   0.499820   x 
            x  C           77         0.518476   0.259062   0.501172   x 
            x  C           78         0.444311   0.221957   0.501510   x 
            x  C           79         0.518520   0.370283   0.502455   x 
            x  C           80         0.444370   0.333187   0.502941   x 
            x  C           81         0.518535   0.481483   0.502857   x 
            x  C           82         0.444376   0.444400   0.503352   x 
            x  C           83         0.518539   0.592688   0.502118   x 
            x  C           84         0.444378   0.555602   0.502363   x 
            x  C           85         0.518573   0.703929   0.500691   x 
            x  C           86         0.444414   0.666816   0.500657   x 
            x  C           87         0.518635   0.815139   0.499286   x 
            x  C           88         0.444476   0.778044   0.499034   x 
            x  C           89         0.518580   0.926111   0.498517   x 
            x  C           90         0.444492   0.889163   0.498142   x 
            x  C           91         0.629616   0.036773   0.498715   x 
            x  C           92         0.555524  -0.000166   0.498562   x 
            x  C           93         0.629645   0.147884   0.498917   x 
            x  C           94         0.555490   0.110795   0.499070   x 
            x  C           95         0.629695   0.259091   0.499799   x 
            x  C           96         0.555527   0.221989   0.500287   x 
            x  C           97         0.629742   0.370316   0.500762   x 
            x  C           98         0.555574   0.333221   0.501557   x 
            x  C           99         0.629767   0.481516   0.501384   x 
            x  C          100         0.555611   0.444429   0.502388   x 
            x  C          101         0.629770   0.592697   0.501495   x 
            x  C          102         0.555615   0.555617   0.502318   x 
            x  C          103         0.629781   0.703920   0.500814   x 
            x  C          104         0.555623   0.666833   0.501276   x 
            x  C          105         0.629833   0.815152   0.499837   x 
            x  C          106         0.555693   0.778075   0.499929   x 
            x  C          107         0.629788   0.926144   0.499021   x 
            x  C          108         0.555713   0.889211   0.498907   x 
            x  C          109         0.740828   0.036811   0.498955   x 
            x  C          110         0.666739  -0.000134   0.498861   x 
            x  C          111         0.740859   0.147935   0.498719   x 
            x  C          112         0.666707   0.110835   0.498734   x 
            x  C          113         0.740906   0.259155   0.498689   x 
            x  C          114         0.666748   0.222024   0.499092   x 
            x  C          115         0.740963   0.370372   0.499030   x 
            x  C          116         0.666799   0.333253   0.499899   x 
            x  C          117         0.741007   0.481575   0.499496   x 
            x  C          118         0.666846   0.444475   0.500616   x 
            x  C          119         0.741019   0.592752   0.499809   x 
            x  C          120         0.666863   0.555653   0.500971   x 
            x  C          121         0.740978   0.703899   0.499994   x 
            x  C          122         0.666834   0.666828   0.500844   x 
            x  C          123         0.740985   0.815105   0.499756   x 
            x  C          124         0.666867   0.778059   0.500161   x 
            x  C          125         0.740948   0.926154   0.499305   x 
            x  C          126         0.666896   0.889224   0.499336   x 
            x  C          127         0.852019   0.036844   0.499270   x 
            x  C          128         0.777944  -0.000112   0.499135   x 
            x  C          129         0.852052   0.147987   0.498985   x 
            x  C          130         0.777917   0.110886   0.498847   x 
            x  C          131         0.852094   0.259212   0.498517   x 
            x  C          132         0.777959   0.222087   0.498582   x 
            x  C          133         0.852149   0.370443   0.497990   x 
            x  C          134         0.778020   0.333311   0.498523   x 
            x  C          135         0.852205   0.481645   0.497730   x 
            x  C          136         0.778077   0.444535   0.498740   x 
            x  C          137         0.852241   0.592817   0.497882   x 
            x  C          138         0.778111   0.555724   0.499059   x 
            x  C          139         0.852197   0.703934   0.498394   x 
            x  C          140         0.778084   0.666869   0.499419   x 
            x  C          141         0.852115   0.815000   0.498964   x 
            x  C          142         0.778024   0.778014   0.499586   x 
            x  C          143         0.852023   0.926067   0.499289   x 
            x  C          144         0.778001   0.889179   0.499442   x 
            x  C          145         0.963064   0.036906   0.499666   x 
            x  C          146         0.889058  -0.000128   0.499395   x 
            x  C          147         0.963031   0.148003   0.499735   x 
            x  C          148         0.889045   0.110905   0.499281   x 
            x  C          149         0.963051   0.259184   0.499213   x 
            x  C          150         0.889078   0.222114   0.498868   x 
            x  C          151         0.963102   0.370399   0.498191   x 
            x  C          152         0.889135   0.333345   0.498155   x 
            x  C          153         0.963146   0.481608   0.497044   x 
            x  C          154         0.889194   0.444565   0.497489   x 
            x  C          155         0.963189   0.592791   0.496473   x 
            x  C          156         0.889239   0.555753   0.497256   x 
            x  C          157         0.963201   0.703937   0.496784   x 
            x  C          158         0.889237   0.666910   0.497591   x 
            x  C          159         0.963144   0.814987   0.497762   x 
            x  C          160         0.889186   0.777992   0.498335   x 
            x  C          161         0.962977   0.925926   0.498909   x 
            x  C          162         0.889019   0.889022   0.499024   x 
            xxxxxxxxxxxxxxxxxxxxxxxxxxxxxxxxxxxxxxxxxxxxxxxxxxxxxxxxxxxx
 
 
                         No user defined ionic velocities
 
                           -------------------------------
                                   Details of Species
                           -------------------------------
 
                               Mass of species in AMU
                                    H    1.0079400
                                    C   12.0107000
 
                          Electric Quadrupole Moment (Barn)
                                    H    0.0028600 Isotope  2
                                    C    0.0332700 Isotope 11
 
                          Files used for pseudopotentials:
                                    H 1|0.8|14|16|19|10N(qc=8)
                                    C 1|1.2|17|20|23|20N:21L(qc=8)
 
                           -------------------------------
                              k-Points For BZ Sampling
                           -------------------------------
                       MP grid size for SCF calculation is  1  1  1
                            with an offset of   0.000  0.000  0.000
                       Number of kpoints used =   1
 
                           -------------------------------
                               Symmetry and Constraints
                           -------------------------------
 
                      Maximum deviation from symmetry =  0.00000         ANG
 
                      Number of symmetry operations   = 1
         There are no ionic constraints specified or generated for this cell
                      Point group of crystal =     1: C1, 1, 1
                      Space group of crystal =     1: P1, P 1
 
             Set iprint > 1 for details on symmetry rotations/translations
 
                         Centre of mass is NOT constrained
 
                         Number of cell constraints= 6
                         Cell constraints are:  0 0 0 0 0 0
 
                         External pressure/stress (GPa)
                          0.00000   0.00000   0.00000
                                    0.00000   0.00000
                                              0.00000
 
                                --------------------
                                  DFT-D parameters
                                --------------------
 
                          Dispersion-correction scheme : MBD*      
                        Parameter sR :   0.830000 (default)
 
        xxxxxxxxxxxxxxxxxxxxxxxxxxxxxxxxxxxxxxxxxxxxxxxxxxxxxxxxxxxxxxxxxxxx
        x              Atomic DFT-D parameters                             x
        x  Species      C6            alpha        R0                      x
        x               eV A^6        A^3          A                       x
        x------------------------------------------------------------------x
        x  H             3.8839       0.6668       1.6404   (default)      x
        x  C            27.8448       1.7782       1.8997   (default)      x
        xxxxxxxxxxxxxxxxxxxxxxxxxxxxxxxxxxxxxxxxxxxxxxxxxxxxxxxxxxxxxxxxxxxx
 
  
+---------------- MEMORY AND SCRATCH DISK ESTIMATES PER PROCESS --------------+
|                                                     Memory          Disk    |
| Baseline code, static data and system overhead      788.0 MB         0.0 MB |
| BLAS internal memory storage                          0.0 MB         0.0 MB |
| Model and support data                               35.2 MB         0.0 MB |
| Electronic energy minimisation requirements          68.9 MB         0.0 MB |
| Force calculation requirements                        5.4 MB         0.0 MB |
|                                               ----------------------------- |
| Approx. total storage required per process          892.1 MB         0.0 MB |
|                                                                             |
| Requirements will fluctuate during execution and may exceed these estimates |
+-----------------------------------------------------------------------------+
Calculating approximate eigenstates for fixed initial Hamiltonian
Cut-off for approx. calculation is  282.421 eV
Improving approx. states at cut-off of  462.594 eV
Resetting cut-off to  800.000 eV
Calculating total energy with cut-off of  800.000 eV.
------------------------------------------------------------------------ <-- SCF
SCF loop      Energy           Fermi           Energy gain       Timer   <-- SCF
                               energy          per atom          (sec)   <-- SCF
------------------------------------------------------------------------ <-- SCF
Initial  -2.39280210E+004  0.00000000E+000                        28.17  <-- SCF
      1  -2.62816717E+004 -5.68542615E+000   1.43515288E+001      43.41  <-- SCF
      2  -2.62822068E+004 -5.68649665E+000   3.26256784E-003      58.86  <-- SCF
      3  -2.62172980E+004 -4.38769038E+000  -3.95785431E-001      76.42  <-- SCF
      4  -2.62133746E+004 -3.87415697E+000  -2.39229666E-002      94.39  <-- SCF
      5  -2.62124876E+004 -3.65567040E+000  -5.40879643E-003     113.68  <-- SCF
      6  -2.62118725E+004 -3.46433057E+000  -3.75037523E-003     131.66  <-- SCF
      7  -2.62114987E+004 -3.19779381E+000  -2.27927939E-003     148.64  <-- SCF
      8  -2.62112449E+004 -3.06202970E+000  -1.54736717E-003     165.75  <-- SCF
      9  -2.62111784E+004 -2.93046821E+000  -4.05638865E-004     183.02  <-- SCF
     10  -2.62112357E+004 -2.81358926E+000   3.49322854E-004     199.81  <-- SCF
     11  -2.62112978E+004 -2.72852578E+000   3.78457845E-004     215.43  <-- SCF
     12  -2.62113182E+004 -2.65714838E+000   1.24209508E-004     230.96  <-- SCF
     13  -2.62113130E+004 -2.58820587E+000  -3.12149593E-005     246.56  <-- SCF
     14  -2.62113029E+004 -2.51253102E+000  -6.18111321E-005     261.23  <-- SCF
     15  -2.62113040E+004 -2.45210206E+000   6.91852812E-006     275.91  <-- SCF
     16  -2.62113274E+004 -2.40449110E+000   1.42584773E-004     289.99  <-- SCF
     17  -2.62113601E+004 -2.38917382E+000   1.99314056E-004     304.01  <-- SCF
     18  -2.62113715E+004 -2.38700210E+000   6.97101189E-005     317.30  <-- SCF
     19  -2.62113751E+004 -2.38644375E+000   2.18610687E-005     330.21  <-- SCF
     20  -2.62113757E+004 -2.38648392E+000   3.72891350E-006     343.45  <-- SCF
     21  -2.62113759E+004 -2.38657101E+000   9.20142809E-007     356.45  <-- SCF
     22  -2.62113760E+004 -2.38652885E+000   4.83765106E-007     369.67  <-- SCF
     23  -2.62113761E+004 -2.38640775E+000   5.48414233E-007     383.09  <-- SCF
     24  -2.62113761E+004 -2.38641116E+000   1.75799366E-007     396.63  <-- SCF
------------------------------------------------------------------------ <-- SCF
 
Final energy, E             =  -26211.14432209     eV
Final free energy (E-TS)    =  -26211.37607904     eV
(energies not corrected for finite basis set)
 
NB est. 0K energy (E-0.5TS)      =  -26211.26020056     eV
 
(SEDC) Total Energy Correction : -0.134653E+02 eV

Dispersion corrected final energy*, Ecor          =  -26224.60959996     eV
Dispersion corrected final free energy* (Ecor-TS) =  -26224.84135691     eV
NB dispersion corrected est. 0K energy* (Ecor-0.5TS) =  -26224.72547843     eV

Writing analysis data to 9x9.castep_bin

Writing model to 9x9.check
++++++++++++++++++++++++++++++++++++++++++++++++++++++++++++++++++++++++++++++++
+++++++++++++++++++++++ Starting Transition State Search +++++++++++++++++++++++
++++++++++++++++++++++++++++++++++++++++++++++++++++++++++++++++++++++++++++++++
 
++++++++++++++++++++++++++++++++++++++++++++++++++++++++++++++++++++++++++++++++
+++++++++++++++++++++++ Linear synchronous transit method ++++++++++++++++++++++
++++++++++++++++++++++++++++++++++++++++++++++++++++++++++++++++++++++++++++++++
 
 +++++++++++++++++++++++++++++++++++++++++++++++++++++++
 Difference vector: Fractional components 
 +++++++++++++++++++++++++++++++++++++++++++++++++++++++
   -0.048916918   -0.048807419    0.096148288
    0.038675168    0.038306330    0.100040888
    0.000185416    0.000319151    0.002072921
    0.000050017    0.000080553    0.001578450
   -0.000062754    0.000187571    0.000491361
   -0.000252055   -0.000074701    0.000881567
   -0.000167242   -0.000173143    0.000626938
   -0.000377300   -0.000233027    0.000790945
   -0.000082962   -0.000102498    0.002491089
   -0.000119516   -0.000073249    0.001526586
   -0.000023446   -0.000040735    0.001831428
   -0.000050203    0.000000756    0.000926534
   -0.000041630    0.000015008   -0.000364380
   -0.000071164    0.000012361   -0.000572241
   -0.000050197    0.000057180   -0.001478246
   -0.000107294    0.000007046   -0.001248790
    0.000016317    0.000150213   -0.000841029
   -0.000047262    0.000048190   -0.000796899
    0.000107527    0.000262047    0.001052233
    0.000062143    0.000086992    0.000686840
    0.000346596    0.000587323    0.002443162
    0.000167971    0.000312835    0.002088985
    0.000333961    0.000726240    0.000876225
    0.000172218    0.000327062    0.001518894
    0.000237339    0.000301077   -0.004447190
   -0.000633118   -0.000233446   -0.001018652
   -0.000115098   -0.000271120    0.001219784
   -0.000224955   -0.000128142    0.001910369
    0.000038743   -0.000112186    0.003825513
   -0.000072629   -0.000043654    0.003047308
    0.000038475   -0.000026467    0.002230798
   -0.000032050    0.000018560    0.001232114
   -0.000002818    0.000049585   -0.000318943
   -0.000054904    0.000056895   -0.000998189
    0.000036777    0.000138287   -0.000759208
   -0.000004742    0.000110428   -0.001246347
    0.000153328    0.000290003    0.000870367
    0.000066171    0.000180329    0.000274531
    0.000283988    0.000398745    0.002479601
    0.000210181    0.000336778    0.002162882
    0.000624436    0.000783228    0.001525840
    0.000361883    0.000544555    0.001958641
    0.001452460    0.002490485   -0.008963329
    0.000048167    0.000749851   -0.003976520
    0.000981530   -0.000572518   -0.010314871
   -0.000573124   -0.000538168   -0.004347095
    0.000113976   -0.000100688    0.001288283
   -0.000084915   -0.000074903    0.002723551
    0.000127672   -0.000025280    0.003834602
    0.000016606   -0.000010623    0.003748646
    0.000054034    0.000028698    0.001887872
   -0.000019043    0.000030356    0.001274390
    0.000050910    0.000076281    0.000200872
   -0.000013525    0.000070713   -0.000514794
    0.000128089    0.000197954    0.000713303
    0.000050556    0.000175324    0.000181191
    0.000240178    0.000072787    0.001631354
    0.000158121    0.000162944    0.001717624
    0.000514804    0.000217549    0.001975912
    0.000314215    0.000355604    0.002531620
    0.000677388    0.000629198   -0.002722452
    0.000844634    0.000782879   -0.003087163
   -0.001086185    0.001102548   -0.016157383
    0.001333147    0.001666860   -0.029608196
    0.000584044   -0.000966761   -0.010203391
    0.000000523    0.000011092   -0.005556460
    0.000277821    0.000123715    0.001303586
    0.000079495    0.000088127    0.002754980
    0.000114903    0.000086980    0.002522002
    0.000055893    0.000074861    0.003079612
    0.000084112    0.000046479    0.001074601
    0.000007503    0.000054243    0.000995631
    0.000104614    0.000049171    0.000699181
    0.000038702    0.000082969    0.000428486
    0.000224048   -0.000060035    0.000644303
    0.000145106   -0.000016520    0.000972363
    0.000359006   -0.000096655    0.001628869
    0.000337153   -0.000051662    0.001957744
    0.000232441   -0.000234629    0.001325052
    0.000719754   -0.000235255    0.000647043
   -0.000624678   -0.000674108   -0.002673035
    0.000691061   -0.000691365   -0.006087763
   -0.002487360   -0.001450129   -0.008839264
   -0.001652657   -0.001320416   -0.029501109
   -0.000294774   -0.000234415   -0.004347203
    0.000543776    0.000582691   -0.004209780
    0.000178341    0.000162934    0.000659922
    0.000142225    0.000229360    0.001959383
    0.000160007    0.000150185    0.000949742
    0.000087977    0.000121229    0.001570303
    0.000126975    0.000015830    0.000359476
    0.000062025    0.000024912    0.000607422
    0.000186897   -0.000059341   -0.000021996
    0.000140402   -0.000068074    0.000209076
    0.000188933   -0.000181830    0.000544831
    0.000341658   -0.000242401    0.000931152
    0.000100363   -0.000353329    0.001621922
    0.000489566   -0.000496224    0.001814777
   -0.000218030   -0.000518803    0.001992928
    0.000225640   -0.000728598    0.000664086
   -0.000779302   -0.000625595    0.001558397
   -0.000786067   -0.000843945   -0.003007261
   -0.000725191   -0.000340833    0.000867333
   -0.000751693   -0.000055048   -0.003896195
   -0.000187875    0.000053849    0.000456142
    0.000237044    0.000631236   -0.000992967
    0.000072393    0.000091016    0.000482463
    0.000240716    0.000371533    0.000817279
    0.000154643    0.000054771   -0.000014452
    0.000109756    0.000094777    0.000366952
    0.000061863   -0.000058157   -0.000274274
    0.000126537   -0.000026885   -0.000194688
    0.000064924   -0.000178388   -0.000004372
    0.000224466   -0.000223188    0.000093624
    0.000065800   -0.000218279    0.000668125
    0.000239863   -0.000343511    0.000935943
   -0.000072456   -0.000238325    0.001650038
    0.000046255   -0.000341995    0.001967903
   -0.000396630   -0.000284642    0.002496247
   -0.000360526   -0.000322627    0.002554520
   -0.000587797   -0.000352635    0.002414293
   -0.000552185   -0.000370780    0.001944747
   -0.000323811   -0.000193105    0.002040300
   -0.000337903   -0.000183215    0.001480001
   -0.000015220    0.000060179    0.001164549
    0.000067482    0.000241791    0.000859346
    0.000016787    0.000041996    0.000119278
    0.000180339    0.000244060    0.000121886
   -0.000046021   -0.000013613    0.000100816
    0.000020711   -0.000024583   -0.000160564
   -0.000058131   -0.000150802   -0.000039149
    0.000021015   -0.000127212   -0.000205361
   -0.000018025   -0.000123292    0.000352080
    0.000066850   -0.000139539    0.000235805
   -0.000050720   -0.000098104    0.000704323
    0.000021237   -0.000139938    0.000994769
   -0.000195965   -0.000125614    0.000748273
   -0.000161441   -0.000161477    0.001742805
   -0.000286568   -0.000150004    0.000882963
   -0.000340047   -0.000218619    0.002159389
   -0.000267404   -0.000110238    0.001059769
   -0.000323158   -0.000175514    0.002066251
   -0.000118730   -0.000052483    0.001203423
   -0.000090245   -0.000055518    0.001575731
    0.000003841   -0.000004390    0.000848356
    0.000034650    0.000010102    0.000692603
   -0.000064924    0.000011681    0.001162835
   -0.000018686   -0.000039311    0.000675992
   -0.000102012   -0.000071963    0.000472795
   -0.000256655   -0.000183504    0.000097324
   -0.000155149   -0.000150879    0.000902837
   -0.000101028   -0.000105415    0.000333850
   -0.000047373   -0.000074556    0.001018582
   -0.000024334   -0.000054611    0.000578904
   -0.000077592   -0.000043986    0.000142883
   -0.000079471   -0.000038365    0.000427437
   -0.000132076   -0.000024883   -0.000785830
   -0.000168536   -0.000050385    0.000200140
   -0.000145167   -0.000011751   -0.000839965
   -0.000177486   -0.000065091    0.000279094
   -0.000040752    0.000034718    0.000023344
   -0.000094314   -0.000065012    0.000710971
    0.000047881    0.000113832    0.001170101
   -0.000003253   -0.000001321    0.001046456
 +++++++++++++++++++++++++++++++++++++++++++++++++++++++
 
 +++++++++++++++++++++++++++++++++++++++++++++++++++++++
 Periodic cell setup complete
 +++++++++++++++++++++++++++++++++++++++++++++++++++++++
 
------------------------------------------------------------------------ <-- SCF
SCF loop      Energy           Fermi           Energy gain       Timer   <-- SCF
                               energy          per atom          (sec)   <-- SCF
------------------------------------------------------------------------ <-- SCF
Initial  -2.62111433E+004  0.00000000E+000                       418.66  <-- SCF
      1  -2.62113761E+004 -2.38643869E+000   1.41936158E-003     430.44  <-- SCF
      2  -2.62113761E+004 -2.38643869E+000   3.14639359E-011     443.71  <-- SCF
      3  -2.62113761E+004 -2.38643122E+000   1.23652683E-007     456.34  <-- SCF
      4  -2.62113762E+004 -2.38642789E+000   1.27531934E-007     469.54  <-- SCF
------------------------------------------------------------------------ <-- SCF
 
Final energy, E             =  -26211.14439950     eV
Final free energy (E-TS)    =  -26211.37615702     eV
(energies not corrected for finite basis set)
 
NB est. 0K energy (E-0.5TS)      =  -26211.26027826     eV
 

Dispersion corrected final energy*, Ecor          =  -26224.60967737     eV
Dispersion corrected final free energy* (Ecor-TS) =  -26224.84143489     eV
NB dispersion corrected est. 0K energy* (Ecor-0.5TS) =  -26224.72555613     eV
 +++++++++++++++++++++++++++++++++++++++++++++++++++++++
 Reactant                      
 Path coordinate:                         0.00000
 Energy:                             -26224.84143 eV                            
 +++++++++++++++++++++++++++++++++++++++++++++++++++++++
 
            ++++++++++++++++++++++++++++++++++++++++++++++++++++++++++++++++++++
                             Coordinates: Fractional components
            ++++++++++++++++++++++++++++++++++++++++++++++++++++++++++++++++++++
            +  Element    Atom                                                 +
            +            Number           x          y          z              +
            ++++++++++++++++++++++++++++++++++++++++++++++++++++++++++++++++++++
            +H             1          0.448481   0.450029   0.588887           +
            +H             2          0.327534   0.329054   0.588918           +
            +C             1          0.073735   0.036516   0.497783           +
            +C             2         -0.000092  -0.000185   0.497910           +
            +C             3          0.073842   0.147711   0.500171           +
            +C             4          0.000050   0.110941   0.499157           +
            +C             5          0.073884   0.259198   0.499940           +
            +C             6          0.000117   0.222195   0.499027           +
            +C             7          0.073817   0.370305   0.497088           +
            +C             8         -0.000112   0.333226   0.497452           +
            +C             9          0.073781   0.481449   0.496061           +
            +C            10         -0.000142   0.444361   0.496681           +
            +C            11          0.073838   0.592600   0.496747           +
            +C            12         -0.000081   0.555542   0.497032           +
            +C            13          0.073878   0.703743   0.497433           +
            +C            14         -0.000022   0.666720   0.497507           +
            +C            15          0.073849   0.814810   0.497577           +
            +C            16         -0.000058   0.777825   0.497758           +
            +C            17          0.073745   0.925715   0.497254           +
            +C            18         -0.000194   0.888842   0.497600           +
            +C            19          0.184565   0.036093   0.497208           +
            +C            20          0.110735  -0.000538   0.497193           +
            +C            21          0.184604   0.147146   0.500450           +
            +C            22          0.110679   0.110540   0.499161           +
            +C            23          0.184656   0.258746   0.506418           +
            +C            24          0.111402   0.222217   0.502151           +
            +C            25          0.184984   0.370495   0.500146           +
            +C            26          0.110975   0.333264   0.498648           +
            +C            27          0.184835   0.481524   0.495969           +
            +C            28          0.110826   0.444373   0.496042           +
            +C            29          0.184854   0.592642   0.495553           +
            +C            30          0.110807   0.555502   0.496007           +
            +C            31          0.184922   0.703763   0.496685           +
            +C            32          0.110859   0.666656   0.497026           +
            +C            33          0.184940   0.814844   0.497171           +
            +C            34          0.110862   0.777797   0.497461           +
            +C            35          0.184798   0.925662   0.496892           +
            +C            36          0.110812   0.888839   0.497231           +
            +C            37          0.295725   0.036249   0.496886           +
            +C            38          0.221735  -0.000638   0.496753           +
            +C            39          0.295438   0.147038   0.499718           +
            +C            40          0.221588   0.110208   0.498853           +
            +C            41          0.294653   0.256566   0.511690           +
            +C            42          0.221931   0.221238   0.506134           +
            +C            43          0.295121   0.370836   0.513306           +
            +C            44          0.222533   0.333723   0.506593           +
            +C            45          0.295967   0.481556   0.500449           +
            +C            46          0.222027   0.444438   0.498328           +
            +C            47          0.295976   0.592679   0.495984           +
            +C            48          0.221933   0.555563   0.495389           +
            +C            49          0.296076   0.703833   0.496020           +
            +C            50          0.221987   0.666719   0.495965           +
            +C            51          0.296124   0.814959   0.496802           +
            +C            52          0.222039   0.777872   0.496937           +
            +C            53          0.296011   0.925798   0.496909           +
            +C            54          0.222007   0.888871   0.496970           +
            +C            55          0.406939   0.036604   0.497308           +
            +C            56          0.332935  -0.000439   0.496911           +
            +C            57          0.406705   0.147593   0.498696           +
            +C            58          0.332758   0.110366   0.497959           +
            +C            59          0.406603   0.258414   0.505121           +
            +C            60          0.332293   0.221174   0.505356           +
            +C            61          0.408400   0.369157   0.519533           +
            +C            62          0.331840   0.331529   0.532882           +
            +C            63          0.406715   0.482431   0.513266           +
            +C            64          0.333151   0.444388   0.508356           +
            +C            65          0.407039   0.592555   0.500153           +
            +C            66          0.333081   0.555496   0.498334           +
            +C            67          0.407243   0.703811   0.497123           +
            +C            68          0.333128   0.666716   0.496051           +
            +C            69          0.407317   0.815040   0.497127           +
            +C            70          0.333233   0.777942   0.496606           +
            +C            71          0.407246   0.926005   0.497232           +
            +C            72          0.333223   0.889019   0.496987           +
            +C            73          0.518167   0.036793   0.498003           +
            +C            74          0.444160  -0.000204   0.497480           +
            +C            75          0.518074   0.147941   0.498135           +
            +C            76          0.443930   0.110802   0.497862           +
            +C            77          0.518243   0.259297   0.499847           +
            +C            78          0.443591   0.222193   0.500863           +
            +C            79          0.519145   0.370958   0.505128           +
            +C            80          0.443679   0.333879   0.509029           +
            +C            81          0.521022   0.482933   0.511696           +
            +C            82          0.446029   0.445721   0.532853           +
            +C            83          0.518834   0.592922   0.506465           +
            +C            84          0.443834   0.555019   0.506573           +
            +C            85          0.518395   0.703766   0.500031           +
            +C            86          0.444271   0.666586   0.498698           +
            +C            87          0.518475   0.814989   0.498337           +
            +C            88          0.444388   0.777923   0.497463           +
            +C            89          0.518453   0.926095   0.498157           +
            +C            90          0.444430   0.889138   0.497535           +
            +C            91          0.629429   0.036832   0.498737           +
            +C            92          0.555384  -0.000098   0.498353           +
            +C            93          0.629456   0.148066   0.498373           +
            +C            94          0.555149   0.111037   0.498139           +
            +C            95          0.629594   0.259444   0.498177           +
            +C            96          0.555037   0.222485   0.498472           +
            +C            97          0.629960   0.370835   0.498769           +
            +C            98          0.555349   0.333949   0.500893           +
            +C            99          0.630546   0.482142   0.499825           +
            +C           100          0.556397   0.445273   0.505395           +
            +C           101          0.630495   0.593038   0.500628           +
            +C           102          0.556367   0.555672   0.506214           +
            +C           103          0.629968   0.703866   0.500358           +
            +C           104          0.555386   0.666202   0.502269           +
            +C           105          0.629761   0.815061   0.499354           +
            +C           106          0.555453   0.777704   0.499111           +
            +C           107          0.629634   0.926090   0.499035           +
            +C           108          0.555603   0.889116   0.498540           +
            +C           109          0.740766   0.036869   0.499229           +
            +C           110          0.666613  -0.000108   0.499056           +
            +C           111          0.740794   0.148113   0.498723           +
            +C           112          0.666482   0.111058   0.498640           +
            +C           113          0.740840   0.259374   0.498020           +
            +C           114          0.666508   0.222368   0.498156           +
            +C           115          0.741035   0.370611   0.497380           +
            +C           116          0.666753   0.333595   0.497931           +
            +C           117          0.741403   0.481859   0.497000           +
            +C           118          0.667206   0.444798   0.498061           +
            +C           119          0.741607   0.593104   0.497395           +
            +C           120          0.667415   0.556024   0.499027           +
            +C           121          0.741302   0.704092   0.497954           +
            +C           122          0.667172   0.667011   0.499364           +
            +C           123          0.741000   0.815045   0.498592           +
            +C           124          0.666799   0.777817   0.499302           +
            +C           125          0.740931   0.926112   0.499186           +
            +C           126          0.666716   0.888980   0.499214           +
            +C           127          0.852065   0.036858   0.499169           +
            +C           128          0.777924  -0.000087   0.499295           +
            +C           129          0.852110   0.148138   0.499024           +
            +C           130          0.777896   0.111013   0.499053           +
            +C           131          0.852113   0.259335   0.498165           +
            +C           132          0.777892   0.222226   0.498347           +
            +C           133          0.852200   0.370541   0.497285           +
            +C           134          0.777999   0.333451   0.497528           +
            +C           135          0.852401   0.481771   0.496982           +
            +C           136          0.778238   0.444696   0.496997           +
            +C           137          0.852527   0.592967   0.496999           +
            +C           138          0.778451   0.555943   0.496900           +
            +C           139          0.852464   0.704045   0.497334           +
            +C           140          0.778407   0.667045   0.497353           +
            +C           141          0.852234   0.815053   0.497760           +
            +C           142          0.778115   0.778070   0.498010           +
            +C           143          0.852019   0.926071   0.498441           +
            +C           144          0.777966   0.889168   0.498749           +
            +C           145          0.963129   0.036894   0.498503           +
            +C           146          0.889077  -0.000089   0.498719           +
            +C           147          0.963133   0.148075   0.499263           +
            +C           148          0.889302   0.111089   0.499183           +
            +C           149          0.963206   0.259335   0.498310           +
            +C           150          0.889179   0.222219   0.498535           +
            +C           151          0.963149   0.370474   0.497173           +
            +C           152          0.889160   0.333399   0.497576           +
            +C           153          0.963224   0.481652   0.496902           +
            +C           154          0.889274   0.444604   0.497062           +
            +C           155          0.963321   0.592816   0.497259           +
            +C           156          0.889408   0.555803   0.497056           +
            +C           157          0.963347   0.703949   0.497624           +
            +C           158          0.889414   0.666975   0.497312           +
            +C           159          0.963185   0.814952   0.497739           +
            +C           160          0.889280   0.778057   0.497624           +
            +C           161          0.962929   0.925812   0.497739           +
            +C           162          0.889022   0.889023   0.497978           +
            ++++++++++++++++++++++++++++++++++++++++++++++++++++++++++++++++++++
                           Forces: Cartesian components: eV/A                          
            ++++++++++++++++++++++++++++++++++++++++++++++++++++++++++++++++++++
            +  Element    Atom                                                 +
            +            Number           x          y          z              +
            ++++++++++++++++++++++++++++++++++++++++++++++++++++++++++++++++++++
            +H             1         -0.001853  -0.006361   0.004187           +
            +H             2          0.004896   0.005693   0.003033           +
            +C             1         -0.001442   0.001998  -0.000750           +
            +C             2          0.003143   0.000321   0.002895           +
            +C             3         -0.000978  -0.001759   0.000834           +
            +C             4          0.001660   0.001405   0.009670           +
            +C             5          0.003336   0.002440   0.007032           +
            +C             6          0.001634   0.000082   0.009132           +
            +C             7          0.004954  -0.000158  -0.005639           +
            +C             8          0.000886   0.002143   0.000593           +
            +C             9          0.002215  -0.000797  -0.009930           +
            +C            10         -0.001187  -0.000697  -0.006198           +
            +C            11          0.001109   0.003722  -0.010142           +
            +C            12          0.002094  -0.001128  -0.011336           +
            +C            13          0.001923  -0.001266   0.003845           +
            +C            14          0.000626   0.000987  -0.002558           +
            +C            15         -0.004903   0.001838  -0.004317           +
            +C            16          0.006593  -0.002880  -0.010792           +
            +C            17         -0.001083   0.003843  -0.006679           +
            +C            18          0.001684  -0.001604  -0.008138           +
            +C            19          0.001530   0.001571   0.003589           +
            +C            20          0.000167   0.001454   0.007293           +
            +C            21         -0.000328   0.001699   0.002291           +
            +C            22          0.003754   0.006119  -0.001599           +
            +C            23          0.001129   0.000494   0.006418           +
            +C            24          0.006823   0.001091   0.003539           +
            +C            25         -0.004936  -0.000849   0.007977           +
            +C            26          0.001045   0.002391   0.002261           +
            +C            27          0.004542  -0.001502   0.005400           +
            +C            28          0.003894  -0.001670   0.007374           +
            +C            29          0.002030  -0.000513  -0.009273           +
            +C            30         -0.005821  -0.000539  -0.002779           +
            +C            31         -0.000519  -0.001200  -0.008369           +
            +C            32          0.000017   0.001449  -0.011743           +
            +C            33          0.001459   0.004115  -0.000683           +
            +C            34          0.000127   0.000114  -0.004072           +
            +C            35         -0.000003   0.003338  -0.007578           +
            +C            36          0.004529  -0.003475  -0.001735           +
            +C            37          0.002648   0.008082  -0.007196           +
            +C            38         -0.002469  -0.005434   0.007230           +
            +C            39          0.008398   0.004125   0.007148           +
            +C            40         -0.004374   0.004534   0.002912           +
            +C            41         -0.001784  -0.005244   0.006570           +
            +C            42         -0.005879  -0.001189  -0.005143           +
            +C            43         -0.003927  -0.002772   0.007240           +
            +C            44          0.004312   0.001486  -0.002897           +
            +C            45         -0.004183   0.003251   0.007980           +
            +C            46          0.000317  -0.001674  -0.004251           +
            +C            47          0.005435  -0.003541   0.003600           +
            +C            48          0.005664  -0.002961   0.013791           +
            +C            49          0.002493  -0.001291  -0.010336           +
            +C            50         -0.004751   0.005557  -0.001905           +
            +C            51          0.003334   0.001602   0.003997           +
            +C            52          0.000223  -0.001387  -0.011386           +
            +C            53         -0.000085   0.004423  -0.006324           +
            +C            54         -0.001666   0.000802  -0.003103           +
            +C            55          0.000766   0.005246  -0.008950           +
            +C            56          0.001155  -0.006769  -0.000491           +
            +C            57         -0.002434   0.008010   0.005614           +
            +C            58         -0.003819   0.004441   0.001441           +
            +C            59          0.006524  -0.006630   0.009350           +
            +C            60         -0.002041  -0.001243   0.001817           +
            +C            61          0.005798  -0.001783   0.008421           +
            +C            62          0.000869   0.008802   0.019125           +
            +C            63          0.003217   0.004023   0.010224           +
            +C            64          0.005684  -0.002105  -0.001517           +
            +C            65         -0.004123   0.004374   0.008239           +
            +C            66          0.002126   0.000204  -0.004455           +
            +C            67          0.002756  -0.004813  -0.006955           +
            +C            68          0.005410  -0.001465   0.006735           +
            +C            69         -0.001641   0.000198  -0.002999           +
            +C            70          0.000616   0.005008  -0.005921           +
            +C            71          0.002119   0.004219   0.011772           +
            +C            72          0.000390   0.001354  -0.006795           +
            +C            73         -0.004310   0.003723  -0.002177           +
            +C            74          0.003882  -0.002054  -0.001681           +
            +C            75         -0.001009   0.000127  -0.004678           +
            +C            76         -0.000268  -0.000189   0.002758           +
            +C            77         -0.005152   0.000900   0.014728           +
            +C            78         -0.001948   0.000913   0.002529           +
            +C            79          0.007544  -0.002857   0.011122           +
            +C            80         -0.006504   0.002526   0.001667           +
            +C            81         -0.002476   0.000297   0.011638           +
            +C            82         -0.005914  -0.001920   0.017658           +
            +C            83         -0.000603  -0.001346   0.007686           +
            +C            84          0.000089  -0.006309  -0.001013           +
            +C            85         -0.001854  -0.004861   0.006264           +
            +C            86          0.001004   0.002157   0.001711           +
            +C            87          0.000164   0.001547  -0.008609           +
            +C            88          0.001705   0.000713  -0.001074           +
            +C            89         -0.000691   0.000907  -0.000531           +
            +C            90          0.001790  -0.001008  -0.006887           +
            +C            91          0.000451   0.002324   0.002106           +
            +C            92         -0.000445  -0.000460  -0.004535           +
            +C            93         -0.003764   0.000703  -0.007951           +
            +C            94          0.004634  -0.005448   0.001413           +
            +C            95         -0.001676  -0.000482  -0.007395           +
            +C            96         -0.002422   0.001506   0.006976           +
            +C            97         -0.008285  -0.003576   0.003678           +
            +C            98         -0.000561   0.001602   0.002433           +
            +C            99          0.002579  -0.006276   0.007047           +
            +C           100         -0.001711   0.004884   0.000876           +
            +C           101          0.000904  -0.000112  -0.000594           +
            +C           102         -0.000173   0.001237  -0.005379           +
            +C           103          0.000715   0.000839  -0.003040           +
[...]
             C 24  -- C 44                  -0.18        2.47746
             C 43  -- C 61                  -0.16        2.47767
             C 44  -- C 46                  -0.18        2.47783
             C 40  -- C 42                  -0.17        2.47793
             C 66  -- C 84                  -0.18        2.47814
             C 60  -- C 80                  -0.18        2.47815
             C 21  -- C 23                  -0.17        2.47831
             C 41  -- C 61                  -0.16        2.47836
             C 102 -- C 120                 -0.17        2.47852
             C 84  -- C 104                 -0.18        2.47859
             C 83  -- C 101                 -0.17        2.47868
             C 80  -- C 100                 -0.18        2.47881
             C 61  -- C 63                  -0.16        2.47909
             C 102 -- C 122                 -0.17        2.47931
             C 39  -- C 59                  -0.17        2.47946
             C 79  -- C 99                  -0.17        2.48006
             C 59  -- C 79                  -0.17        2.48019
             C 61  -- C 81                  -0.16        2.48049
             C 23  -- C 41                  -0.17        2.48088
             C 23  -- C 25                  -0.18        2.48096
             C 81  -- C 83                  -0.17        2.48121
             C 59  -- C 61                  -0.17        2.48124
             C 65  -- C 83                  -0.18        2.48142
             C 39  -- C 41                  -0.17        2.48203
             C 61  -- C 79                  -0.17        2.48214
             C 58  -- C 60                  -0.17        2.48246
             C 81  -- C 99                  -0.17        2.48266
             C 100 -- C 118                 -0.17        2.48317
             C 63  -- C 65                  -0.17        2.48353
             C 25  -- C 43                  -0.17        2.48396
             C 26  -- C 44                  -0.17        2.48540
             C 60  -- C 62                  -0.17        2.48545
             C 43  -- C 63                  -0.17        2.48554
             C 21  -- C 41                  -0.17        2.48599
             C 84  -- C 86                  -0.17        2.48607
             C 82  -- C 100                 -0.17        2.48695
             C 64  -- C 82                  -0.17        2.48742
             C 81  -- C 101                 -0.17        2.48755
             C 62  -- C 64                  -0.17        2.48788
             C 64  -- C 66                  -0.17        2.48848
             C 46  -- C 64                  -0.17        2.48853
             C 45  -- C 63                  -0.17        2.49136
             C 78  -- C 80                  -0.17        2.49161
             C 80  -- C 98                  -0.17        2.49170
             C 43  -- C 45                  -0.17        2.49184
             C 44  -- C 62                  -0.17        2.49467
             C 82  -- C 84                  -0.17        2.49594
             C 42  -- C 62                  -0.17        2.49741
             C 82  -- C 102                 -0.16        2.50040
               H 1 -- C 63                  -0.06        2.51511
               H 2 -- C 43                  -0.06        2.51990
               H 2 -- C 41                  -0.07        2.64721
               H 1 -- C 81                  -0.06        2.66095
             C 37  -- C 54                  -0.10        2.83870
             C 14  -- C 137                 -0.10        2.83965
             C 19  -- C 36                  -0.10        2.83967
             C 16  -- C 139                 -0.10        2.83971
             C 32  -- C 155                 -0.10        2.84007
             C 30  -- C 153                 -0.10        2.84109
             C 55  -- C 72                  -0.10        2.84124
             C 12  -- C 135                 -0.10        2.84147
             C 10  -- C 133                 -0.10        2.84159
             C 34  -- C 157                 -0.10        2.84171
             C 91  -- C 108                 -0.10        2.84186
             C 36  -- C 159                 -0.10        2.84274
             C 18  -- C 141                 -0.10        2.84300
             C 73  -- C 90                  -0.10        2.84305
             C 22  -- C 145                 -0.10        2.84313
             C 8   -- C 131                 -0.10        2.84328
             C 26  -- C 149                 -0.10        2.84329
             C 109 -- C 126                 -0.10        2.84372
             C 28  -- C 151                 -0.10        2.84374
             C 41  -- C 80                  -0.10        2.84381
             C 127 -- C 144                 -0.10        2.84403
             C 80  -- C 81                  -0.10        2.84454
             C 20  -- C 21                  -0.10        2.84495
             C 1   -- C 18                  -0.10        2.84499
             C 20  -- C 161                 -0.10        2.84524
             C 4   -- C 127                 -0.10        2.84586
             C 160 -- C 161                 -0.10        2.84610
             C 38  -- C 53                  -0.10        2.84614
             C 56  -- C 71                  -0.10        2.84620
             C 145 -- C 162                 -0.10        2.84642
             C 146 -- C 161                 -0.10        2.84663
             C 38  -- C 39                  -0.10        2.84692
             C 34  -- C 35                  -0.10        2.84703
             C 16  -- C 17                  -0.10        2.84705
             C 2   -- C 17                  -0.10        2.84709
             C 2   -- C 143                 -0.10        2.84710
             C 20  -- C 35                  -0.10        2.84733
             C 1   -- C 40                  -0.10        2.84758
             C 128 -- C 143                 -0.10        2.84760
             C 6   -- C 129                 -0.10        2.84763
             C 24  -- C 147                 -0.10        2.84835
             C 140 -- C 141                 -0.10        2.84855
             C 123 -- C 162                 -0.10        2.84873
             C 74  -- C 89                  -0.10        2.84885
             C 158 -- C 159                 -0.10        2.84897
             C 110 -- C 125                 -0.10        2.84900
             C 52  -- C 53                  -0.10        2.84900
             C 142 -- C 143                 -0.10        2.84913
             C 11  -- C 14                  -0.10        2.84920
             C 9   -- C 12                  -0.10        2.84923
             C 145 -- C 148                 -0.10        2.84939
             C 70  -- C 71                  -0.10        2.84952
             C 153 -- C 156                 -0.10        2.84954
             C 121 -- C 160                 -0.10        2.84976
             C 119 -- C 158                 -0.10        2.84977
             C 15  -- C 18                  -0.10        2.84985
             C 151 -- C 154                 -0.10        2.84991
             C 101 -- C 140                 -0.10        2.85003
             C 55  -- C 58                  -0.10        2.85013
             C 92  -- C 107                 -0.10        2.85013
             C 13  -- C 16                  -0.10        2.85017
             C 155 -- C 158                 -0.10        2.85018
             C 2   -- C 3                   -0.10        2.85020
             C 51  -- C 54                  -0.10        2.85044
             C 117 -- C 156                 -0.10        2.85054
             C 69  -- C 72                  -0.10        2.85091
             C 33  -- C 36                  -0.10        2.85091
             C 37  -- C 40                  -0.10        2.85098
             C 17  -- C 38                  -0.10        2.85098
             C 21  -- C 60                  -0.10        2.85107
             C 7   -- C 10                  -0.10        2.85117
             C 149 -- C 152                 -0.10        2.85118
             C 19  -- C 58                  -0.10        2.85121
             C 133 -- C 136                 -0.10        2.85141
             C 128 -- C 129                 -0.10        2.85145
             C 99  -- C 138                 -0.10        2.85146
             C 156 -- C 157                 -0.10        2.85148
             C 53  -- C 74                  -0.10        2.85150
             C 31  -- C 34                  -0.10        2.85156
             C 9   -- C 48                  -0.10        2.85159
             C 92  -- C 93                  -0.10        2.85163
             C 88  -- C 89                  -0.10        2.85164
             C 29  -- C 32                  -0.10        2.85169
             C 15  -- C 54                  -0.10        2.85171
             C 49  -- C 52                  -0.10        2.85180
             C 115 -- C 118                 -0.10        2.85181
             C 124 -- C 125                 -0.10        2.85190
             C 61  -- C 64                  -0.09        2.85191
             C 27  -- C 30                  -0.10        2.85196
             C 135 -- C 138                 -0.10        2.85202
             C 100 -- C 101                 -0.10        2.85209
             C 1   -- C 4                   -0.10        2.85214
             C 42  -- C 43                  -0.10        2.85215
             C 120 -- C 121                 -0.10        2.85215
             C 32  -- C 33                  -0.10        2.85217
             C 147 -- C 150                 -0.10        2.85227
             C 47  -- C 50                  -0.10        2.85234
             C 13  -- C 52                  -0.10        2.85238
             C 3   -- C 6                   -0.10        2.85240
             C 35  -- C 56                  -0.10        2.85240
             C 117 -- C 120                 -0.10        2.85241
             C 157 -- C 160                 -0.10        2.85246
             C 5   -- C 8                   -0.10        2.85248
             C 25  -- C 28                  -0.10        2.85250
             C 14  -- C 15                  -0.10        2.85251
             C 87  -- C 90                  -0.10        2.85253
             C 122 -- C 123                 -0.10        2.85253
             C 4   -- C 5                   -0.10        2.85265
             C 6   -- C 7                   -0.10        2.85266
             C 74  -- C 75                  -0.10        2.85275
             C 125 -- C 146                 -0.10        2.85277
             C 89  -- C 110                 -0.10        2.85280
             C 146 -- C 147                 -0.10        2.85295
             C 110 -- C 111                 -0.10        2.85295
             C 44  -- C 45                  -0.10        2.85302
             C 138 -- C 139                 -0.10        2.85304
             C 107 -- C 128                 -0.10        2.85305
             C 56  -- C 57                  -0.10        2.85312
             C 123 -- C 126                 -0.10        2.85316
             C 22  -- C 23                  -0.10        2.85319
             C 45  -- C 84                  -0.10        2.85321
             C 63  -- C 102                 -0.10        2.85322
             C 71  -- C 92                  -0.10        2.85322
             C 65  -- C 68                  -0.10        2.85325
             C 118 -- C 119                 -0.10        2.85325
             C 26  -- C 27                  -0.10        2.85327
             C 11  -- C 50                  -0.10        2.85330
             C 150 -- C 151                 -0.10        2.85330
             C 7   -- C 46                  -0.10        2.85333
             C 10  -- C 11                  -0.10        2.85335
             C 127 -- C 130                 -0.10        2.85339
             C 115 -- C 154                 -0.10        2.85350
             C 159 -- C 162                 -0.10        2.85354
             C 47  -- C 86                  -0.10        2.85356
             C 50  -- C 51                  -0.10        2.85368
             C 12  -- C 13                  -0.10        2.85368
             C 105 -- C 144                 -0.10        2.85372
             C 67  -- C 70                  -0.10        2.85372
             C 101 -- C 104                 -0.10        2.85385
             C 39  -- C 42                  -0.10        2.85389
             C 131 -- C 134                 -0.10        2.85391
             C 99  -- C 102                 -0.10        2.85393
             C 48  -- C 49                  -0.10        2.85398
             C 69  -- C 108                 -0.10        2.85401
             C 31  -- C 70                  -0.10        2.85404
             C 21  -- C 24                  -0.10        2.85406
             C 105 -- C 108                 -0.10        2.85414
             C 137 -- C 140                 -0.10        2.85417
             C 67  -- C 106                 -0.10        2.85425
             C 134 -- C 135                 -0.10        2.85428
             C 152 -- C 153                 -0.10        2.85437
             C 29  -- C 68                  -0.10        2.85446
             C 57  -- C 96                  -0.10        2.85448
             C 112 -- C 113                 -0.10        2.85450
             C 111 -- C 150                 -0.10        2.85456
             C 37  -- C 76                  -0.10        2.85467
             C 73  -- C 76                  -0.10        2.85469
             C 3   -- C 42                  -0.10        2.85473
             C 103 -- C 106                 -0.10        2.85474
             C 136 -- C 137                 -0.10        2.85475
             C 96  -- C 97                  -0.10        2.85477
             C 55  -- C 94                  -0.10        2.85478
             C 85  -- C 88                  -0.10        2.85478
             C 154 -- C 155                 -0.10        2.85487
             C 121 -- C 124                 -0.10        2.85490
             C 8   -- C 9                   -0.10        2.85490
             C 73  -- C 112                 -0.10        2.85491
             C 109 -- C 112                 -0.10        2.85497
             C 28  -- C 29                  -0.10        2.85501
             C 141 -- C 144                 -0.10        2.85509
             C 103 -- C 142                 -0.10        2.85518
             C 129 -- C 132                 -0.10        2.85526
             C 114 -- C 115                 -0.10        2.85534
             C 41  -- C 44                  -0.09        2.85536
             C 85  -- C 124                 -0.10        2.85538
             C 51  -- C 90                  -0.10        2.85541
             C 19  -- C 22                  -0.10        2.85541
             C 81  -- C 84                  -0.09        2.85543
             C 130 -- C 131                 -0.10        2.85549
             C 113 -- C 152                 -0.10        2.85556
             C 66  -- C 67                  -0.10        2.85558
             C 139 -- C 142                 -0.10        2.85559
             C 39  -- C 78                  -0.10        2.85559
             C 116 -- C 117                 -0.10        2.85569
             C 86  -- C 87                  -0.10        2.85569
             C 106 -- C 107                 -0.10        2.85573
             C 91  -- C 94                  -0.10        2.85575
             C 83  -- C 122                 -0.10        2.85578
             C 87  -- C 126                 -0.10        2.85581
             C 148 -- C 149                 -0.10        2.85582
             C 30  -- C 31                  -0.10        2.85590
             C 33  -- C 72                  -0.10        2.85599
             C 94  -- C 95                  -0.10        2.85606
             C 109 -- C 148                 -0.10        2.85609
             C 27  -- C 66                  -0.10        2.85614
             C 119 -- C 122                 -0.10        2.85616
             C 49  -- C 88                  -0.10        2.85623
             C 113 -- C 116                 -0.10        2.85624
             C 132 -- C 133                 -0.10        2.85626
             C 98  -- C 99                  -0.10        2.85634
             C 68  -- C 69                  -0.10        2.85646
             C 46  -- C 47                  -0.10        2.85650
             C 75  -- C 114                 -0.10        2.85654
             C 59  -- C 98                  -0.10        2.85657
             C 93  -- C 132                 -0.10        2.85671
             C 111 -- C 114                 -0.10        2.85690
             C 78  -- C 79                  -0.10        2.85692
             C 23  -- C 26                  -0.10        2.85698
             C 45  -- C 48                  -0.10        2.85718
             C 102 -- C 103                 -0.10        2.85748
             C 83  -- C 86                  -0.10        2.85756
             C 24  -- C 25                  -0.10        2.85759
             C 95  -- C 134                 -0.10        2.85771
             C 93  -- C 96                  -0.10        2.85775
             C 76  -- C 77                  -0.10        2.85792
             C 91  -- C 130                 -0.10        2.85794
             C 97  -- C 136                 -0.10        2.85794
             C 77  -- C 116                 -0.10        2.85810
             C 75  -- C 78                  -0.10        2.85857
             C 65  -- C 104                 -0.10        2.85869
             C 95  -- C 98                  -0.10        2.85888
             C 58  -- C 59                  -0.10        2.85953
             C 79  -- C 118                 -0.10        2.86012
             C 104 -- C 105                 -0.10        2.86044
             C 57  -- C 60                  -0.10        2.86147
             C 60  -- C 61                  -0.10        2.86206
             C 97  -- C 100                 -0.10        2.86211
             C 25  -- C 64                  -0.10        2.86216
             C 64  -- C 65                  -0.10        2.86223
             C 61  -- C 100                 -0.10        2.86374
             C 5   -- C 44                  -0.10        2.86545
             C 40  -- C 41                  -0.10        2.86546
             C 43  -- C 82                  -0.08        2.86692
             C 81  -- C 120                 -0.10        2.86699
             C 59  -- C 62                  -0.10        2.86710
             C 84  -- C 85                  -0.10        2.86784
             C 79  -- C 82                  -0.10        2.86788
             C 62  -- C 63                  -0.08        2.86852
             C 63  -- C 66                  -0.10        2.86981
             C 43  -- C 46                  -0.10        2.87029
             C 77  -- C 80                  -0.09        2.87764
             C 23  -- C 62                  -0.09        2.88774
             C 82  -- C 83                  -0.09        2.89026
               H 1 -- C 62                  -0.07        2.94704
               H 2 -- C 82                  -0.07        2.98086
======================================================================
 

Writing analysis data to 9x9.castep_bin

Writing model to 9x9.check
 
 A BibTeX formatted list of references used in this run has been written to 
 9x9.bib
 
Initialisation time =      3.82 s
Calculation time    =   3692.33 s
Finalisation time   =      4.40 s
Total time          =   3700.55 s
Peak Memory Use     = 1064776 kB
  
Overall parallel efficiency rating: Poor (42%)                                  
  
Data was distributed by:-
G-vector (128-way); efficiency rating: Poor (42%)                               
