 +-------------------------------------------------+
 |                                                 |
 |      CCC   AA    SSS  TTTTT  EEEEE  PPPP        |
 |     C     A  A  S       T    E      P   P       |
 |     C     AAAA   SS     T    EEE    PPPP        |
 |     C     A  A     S    T    E      P           |
 |      CCC  A  A  SSS     T    EEEEE  P           |
 |                                                 |
 +-------------------------------------------------+
 |                                                 |
 | Welcome to Academic Release CASTEP version 21.11|          
 | Ab Initio Total Energy Program                  |
 |                                                 |
 | Authors:                                        |
 | M. Segall, M. Probert, C. Pickard, P. Hasnip,   |
 | S. Clark, K. Refson, J. R. Yates, M. Payne      |
 |                                                 |
 | Contributors:                                   |
 | P. Lindan, P. Haynes, J. White, V. Milman,      |
 | N. Govind, M. Gibson, P. Tulip, V. Cocula,      |
 | B. Montanari, D. Quigley, M. Glover,            |
 | L. Bernasconi, A. Perlov, M. Plummer,           |
 | E. McNellis, J. Meyer, J. Gale, D. Jochym       |
 | J. Aarons, B. Walker, R. Gillen, D. Jones       |
 | T. Green, I. J. Bush, C. J. Armstrong,          |
 | E. J. Higgins, E. L. Brown, M. S. McFly,        |
 | J. Wilkins, B-C. Shih, P. J. P. Byrne,          |
 | R. J. Maurer, J. C. Womack, J. Dziedzic,        |
 | A. Bartok-Partay, L. LeBlanc                    |
 |                                                 |
 | Copyright (c) 2000 - 2021                       |
 |                                                 |
 |     Distributed under license from Cambridge    |
 |     Enterprise for academic use only.           |
 |                                                 |
 | Please cite                                     |
 |                                                 |
 |     "First principles methods using CASTEP"     |
 |                                                 |
 |         Zeitschrift fuer Kristallographie       |
 |           220(5-6) pp. 567-570 (2005)           |
 |                                                 |
 | S. J. Clark, M. D. Segall, C. J. Pickard,       |
 | P. J. Hasnip, M. J. Probert, K. Refson,         |
 | M. C. Payne                                     |
 |                                                 |
 |       in all publications arising from          |
 |              your use of CASTEP                 |
 |                                                 |
 +-------------------------------------------------+
 |                                                 |
 |              http://www.castep.org              |
 |                                                 |
 +-------------------------------------------------+
 
 
 
 Compiled for linux_x86_64_cray-XT on Tue, 01 Mar 2022 09:19:15 +0000
 from code version 7d4405a8a+  HEAD  Sat Nov 27 13:38:33 2021 +0000
 Compiler: Cray Fortran 12.0.3; Optimisation: fast
 MATHLIBS: LibSci (LAPACK version 3.6.1)
 FFT Lib : fftw3 version commercial-fftw-3.3.8-sse2-avx-avx2-avx2_128
 Fundamental constants values: CODATA 2014
 
 Run started: Thu, 27 Oct 2022 12:24:59 -0100
 
 Atomic calculation performed for H: 1s1
 
 Converged in 41 iterations to an ae energy of -12.488 eV
 
   ============================================================                
   | Pseudopotential Report - Date of generation 27-10-2022   |                
   ------------------------------------------------------------                
   | Element: H Ionic charge:  1.00 Level of theory: PBE      |                
   | Atomic Solver: Koelling-Harmon                           |                
   |                                                          |                
   |               Reference Electronic Structure             |                
   |         Orbital         Occupation         Energy        |                
   |            1s              1.000           -0.239        |                
   |                                                          |                
   |                 Pseudopotential Definition               |                
   |        Beta     l      e      Rc     scheme   norm       |                
   |          1      0   -0.239   0.599     qc      0         |                
   |          2      0    0.250   0.599     qc      0         |                
   |         loc     1    0.000   0.599     pn      0         |                
   |                                                          |                
   | Augmentation charge Rinner = 0.421                       |                
   | No partial core correction                               |                
   ------------------------------------------------------------                
   | "1|0.6|13|15|17|10(qc=8)"                                |                
   ------------------------------------------------------------                
   |      Author: Chris J. Pickard, Cambridge University      |                
   ============================================================                
 
 Atomic calculation performed for C: 1s2 2s2 2p2
 
 Converged in 54 iterations to an ae energy of -1027.632 eV
 
   ============================================================                
   | Pseudopotential Report - Date of generation 27-10-2022   |                
   ------------------------------------------------------------                
   | Element: C Ionic charge:  4.00 Level of theory: PBE      |                
   | Atomic Solver: Koelling-Harmon                           |                
   |                                                          |                
   |               Reference Electronic Structure             |                
   |         Orbital         Occupation         Energy        |                
   |            2s              2.000           -0.505        |                
   |            2p              2.000           -0.194        |                
   |                                                          |                
   |                 Pseudopotential Definition               |                
   |        Beta     l      e      Rc     scheme   norm       |                
   |          1      0   -0.505   1.201     qc      1         |                
   |         loc     1   -0.194   1.201     qc      1         |                
   |                                                          |                
   | No charge augmentation                                   |                
   | Partial core correction Rc = 0.839                       |                
   ------------------------------------------------------------                
   | "1|1.2|17|20|23|20N:21L(qc=8)"                           |                
   ------------------------------------------------------------                
   |      Author: Chris J. Pickard, Cambridge University      |                
   ============================================================                
 
 Pseudo atomic calculation performed for H 1s1
 
 Converged in 13 iterations to a total energy of -12.4856 eV
 
 Pseudo atomic calculation performed for C 2s2 2p2
 
 Converged in 18 iterations to a total energy of -152.4291 eV
 Calculation parallelised over 128 processes.
 Data is distributed by G-vector(16-way) and k-point(8-way)

 ************************************ Title ************************************
 

 ***************************** General Parameters ******************************
  
 output verbosity                               : normal  (1)
 write checkpoint data to                       : 4x4.check
 type of calculation                            : geometry optimization
 stress calculation                             : off
 density difference calculation                 : off
 electron localisation func (ELF) calculation   : off
 Hirshfeld analysis                             : off
 polarisation (Berry phase) analysis            : off
 molecular orbital projected DOS                : off
 deltaSCF calculation                           : off
 unlimited duration calculation
 timing information                             : on
 memory usage estimate                          : on
 write extra output files                       : on
 write final potential to formatted file        : off
 write final density to formatted file          : off
 write structure in CELL formatted file         : on
 write BibTeX reference list                    : on
 write OTFG pseudopotential files               : on
 write electrostatic potential file             : on
 write bands file                               : on
 checkpoint writing                             : both castep_bin and check files
  
 output         length unit                     : A
 output           mass unit                     : amu
 output           time unit                     : ps
 output         charge unit                     : e
 output           spin unit                     : hbar/2
 output         energy unit                     : eV
 output          force unit                     : eV/A
 output       velocity unit                     : A/ps
 output       pressure unit                     : GPa
 output     inv_length unit                     : 1/A
 output      frequency unit                     : cm-1
 output force constant unit                     : eV/A**2
 output         volume unit                     : A**3
 output   IR intensity unit                     : (D/A)**2/amu
 output         dipole unit                     : D
 output         efield unit                     : eV/A/e
 output        entropy unit                     : J/mol/K
 output    efield chi2 unit                     : pm/V
  
 wavefunctions paging                           : none
 random number generator seed                   : randomised (122459666)
 data distribution                              : optimal for this architecture
 optimization strategy                          : maximize speed(+++)

 *********************** Exchange-Correlation Parameters ***********************
  
 using functional                               : Perdew Burke Ernzerhof
 relativistic treatment                         : Koelling-Harmon
 DFT+D: Semi-empirical dispersion correction    : on
 SEDC with                                      : MBD@rsSCS method

 ************************* Pseudopotential Parameters **************************
  
 pseudopotential representation                 : reciprocal space
 <beta|phi> representation                      : reciprocal space
 spin-orbit coupling                            : off

 **************************** Basis Set Parameters *****************************
  
 plane wave basis set cut-off                   :   800.0000   eV
 size of standard grid                          :     1.7500
 size of   fine   gmax                          :    25.3584   1/A
 finite basis set correction                    : none

 **************************** Electronic Parameters ****************************
  
 number of  electrons                           :  130.0    
 net charge of system                           :  0.000    
 treating system as non-spin-polarized
 number of bands                                :         98

 ********************* Electronic Minimization Parameters **********************
  
 Method: Treating system as metallic with density mixing treatment of electrons,
         and number of  SD  steps               :          1
         and number of  CG  steps               :          4
  
 total energy / atom convergence tol.           : 0.1000E-05   eV
 eigen-energy convergence tolerance             : 0.3469E-06   eV
 max force / atom convergence tol.              : ignored
 convergence tolerance window                   :          3   cycles
 max. number of SCF cycles                      :        100
 number of fixed-spin iterations                :         10
 smearing scheme                                : Gaussian
 smearing width                                 : 0.2000       eV
 Fermi energy convergence tolerance             : 0.2721E-13   eV
 periodic dipole correction                     : NONE

 ************************** Density Mixing Parameters **************************
  
 density-mixing scheme                          : Pulay
 max. length of mixing history                  :         20
 charge density mixing amplitude                : 0.8000    
 cut-off energy for mixing                      :  800.0       eV

 *********************** Population Analysis Parameters ************************
  
 Population analysis with cutoff                :  3.000       A
 Population analysis output                     : summary and pdos components

 ********************** Geometry Optimization Parameters ***********************
  
 optimization method                            : LBFGS
 max. no. of LBFGS updates                      : unbounded
 variable cell method                           : fixed basis quality
 max. number of steps                           :        100
 estimated bulk modulus                         :  500.0       GPa
 estimated <frequency>                          :  1668.       cm-1
 geom line minimiser                            : on
 with line minimiser tolerance                  :     0.4000
 total energy convergence tolerance             : 0.2000E-04   eV/atom
        max ionic |force| tolerance             : 0.1000E-01   eV/A
 max ionic |displacement| tolerance             : 0.1000E-02   A
   max |stress component| tolerance             : 0.1000       GPa
 convergence tolerance window                   :          2   steps
 backup results every                           :          5   steps
 write geom trajectory file                     : on

 *******************************************************************************
  
 
                           -------------------------------
                                      Unit Cell
                           -------------------------------
        Real Lattice(A)                      Reciprocal Lattice(1/A)
     9.8800000     0.0000000     0.0000000        0.635949930   0.367165863   0.000000000
    -4.9400000     8.5563310     0.0000000        0.000000000   0.734331726   0.000000000
     0.0000000     0.0000000    20.0339000        0.000000000   0.000000000   0.313627666
 
                       Lattice parameters(A)       Cell Angles
                    a =      9.880000          alpha =   90.000000
                    b =      9.880000          beta  =   90.000000
                    c =     20.033900          gamma =  120.000000
 
                       Current cell volume =          1693.596795       A**3
                                   density =             0.228129   AMU/A**3
                                           =             0.378817     g/cm^3
 
                           -------------------------------
                                     Cell Contents
                           -------------------------------
                         Total number of ions in cell =   34
                      Total number of species in cell =    2
                        Max number of any one species =   32
 
            xxxxxxxxxxxxxxxxxxxxxxxxxxxxxxxxxxxxxxxxxxxxxxxxxxxxxxxxxxxx
            x  Element    Atom        Fractional coordinates of atoms  x
            x            Number           u          v          w      x
            x----------------------------------------------------------x
            x  H            1         0.416198   0.329685   0.546391   x 
            x  H            2         0.669467   0.590347   0.548930   x 
            x  C            1         0.166476   0.083155   0.500002   x 
            x  C            2        -0.000100  -0.000140   0.500002   x 
            x  C            3         0.166447   0.333239   0.500002   x 
            x  C            4        -0.000173   0.249815   0.500002   x 
            x  C            5         0.166520   0.583404   0.500002   x 
            x  C            6        -0.000108   0.499946   0.500002   x 
            x  C            7         0.166543   0.833430   0.500002   x 
            x  C            8        -0.000049   0.750064   0.500002   x 
            x  C            9         0.416557   0.083155   0.500002   x 
            x  C           10         0.249870  -0.000199   0.500002   x 
            x  C           11         0.416592   0.333285   0.500002   x 
            x  C           12         0.249853   0.249827   0.500002   x 
            x  C           13         0.416666   0.583474   0.500002   x 
            x  C           14         0.249889   0.499981   0.500002   x 
            x  C           15         0.416657   0.833476   0.500002   x 
            x  C           16         0.249960   0.750123   0.500002   x 
            x  C           17         0.666714   0.083225   0.500002   x 
            x  C           18         0.500005  -0.000152   0.500002   x 
            x  C           19         0.666769   0.333356   0.500002   x 
            x  C           20         0.500012   0.249862   0.500002   x 
            x  C           21         0.666815   0.583509   0.500002   x 
            x  C           22         0.500066   0.500051   0.500002   x 
            x  C           23         0.666788   0.833535   0.500002   x 
            x  C           24         0.500117   0.750193   0.500002   x 
            x  C           25         0.916717   0.083272   0.500002   x 
            x  C           26         0.750125  -0.000093   0.500002   x 
            x  C           27         0.916770   0.333379   0.500002   x 
            x  C           28         0.750152   0.249920   0.500002   x 
            x  C           29         0.916836   0.583509   0.500002   x 
            x  C           30         0.750215   0.500086   0.500002   x 
            x  C           31         0.916769   0.833476   0.500002   x 
            x  C           32         0.750202   0.750181   0.500002   x 
            xxxxxxxxxxxxxxxxxxxxxxxxxxxxxxxxxxxxxxxxxxxxxxxxxxxxxxxxxxxx
 
 
                         No user defined ionic velocities
 
                           -------------------------------
                                   Details of Species
                           -------------------------------
 
                               Mass of species in AMU
                                    H    1.0079400
                                    C   12.0107000
 
                          Electric Quadrupole Moment (Barn)
                                    H    0.0028600 Isotope  2
                                    C    0.0332700 Isotope 11
 
                          Files used for pseudopotentials:
                                    H 1|0.6|13|15|17|10(qc=8)
                                    C 1|1.2|17|20|23|20N:21L(qc=8)
 
                           -------------------------------
                              k-Points For BZ Sampling
                           -------------------------------
                       MP grid size for SCF calculation is  4  4  1
                            with an offset of   0.000  0.000  0.000
                       Number of kpoints used =   8
 
                           -------------------------------
                               Symmetry and Constraints
                           -------------------------------
 
                      Maximum deviation from symmetry =  0.00000         ANG
 
                      Number of symmetry operations   = 1
         There are no ionic constraints specified or generated for this cell
                      Point group of crystal =     1: C1, 1, 1
                      Space group of crystal =     1: P1, P 1
 
             Set iprint > 1 for details on symmetry rotations/translations
 
                         Centre of mass is NOT constrained
 
                         Number of cell constraints= 6
                         Cell constraints are:  0 0 0 0 0 0
 
                         External pressure/stress (GPa)
                          0.00000   0.00000   0.00000
                                    0.00000   0.00000
                                              0.00000
 
                                --------------------
                                  DFT-D parameters
                                --------------------
 
                          Dispersion-correction scheme : MBD*      
                        Parameter sR :   0.830000 (default)
 
        xxxxxxxxxxxxxxxxxxxxxxxxxxxxxxxxxxxxxxxxxxxxxxxxxxxxxxxxxxxxxxxxxxxx
        x              Atomic DFT-D parameters                             x
        x  Species      C6            alpha        R0                      x
        x               eV A^6        A^3          A                       x
        x------------------------------------------------------------------x
        x  H             3.8839       0.6668       1.6404   (default)      x
        x  C            27.8448       1.7782       1.8997   (default)      x
        xxxxxxxxxxxxxxxxxxxxxxxxxxxxxxxxxxxxxxxxxxxxxxxxxxxxxxxxxxxxxxxxxxxx
 
  
+---------------- MEMORY AND SCRATCH DISK ESTIMATES PER PROCESS --------------+
|                                                     Memory          Disk    |
| Baseline code, static data and system overhead      770.0 MB         0.0 MB |
| BLAS internal memory storage                          0.0 MB         0.0 MB |
| Model and support data                               37.8 MB         0.0 MB |
| Electronic energy minimisation requirements          62.0 MB         0.0 MB |
| Force calculation requirements                       12.6 MB         0.0 MB |
|                                               ----------------------------- |
| Approx. total storage required per process          869.7 MB         0.0 MB |
|                                                                             |
| Requirements will fluctuate during execution and may exceed these estimates |
+-----------------------------------------------------------------------------+
Calculating approximate eigenstates for fixed initial Hamiltonian
Cut-off for approx. calculation is  119.774 eV
Improving approx. states at cut-off of  462.594 eV
Resetting cut-off to  800.000 eV
Calculating total energy with cut-off of  800.000 eV.
------------------------------------------------------------------------ <-- SCF
SCF loop      Energy           Fermi           Energy gain       Timer   <-- SCF
                               energy          per atom          (sec)   <-- SCF
------------------------------------------------------------------------ <-- SCF
Initial  -4.73066096E+003  0.00000000E+000                        10.87  <-- SCF
      1  -5.21250872E+003 -5.14789200E+000   1.41719930E+001      16.64  <-- SCF
      2  -5.21273756E+003 -5.14950295E+000   6.73060679E-003      22.60  <-- SCF
      3  -5.19870185E+003 -3.79281599E+000  -4.12815044E-001      29.12  <-- SCF
      4  -5.19787133E+003 -3.27197982E+000  -2.44269949E-002      35.75  <-- SCF
      5  -5.19767689E+003 -3.06485913E+000  -5.71884580E-003      42.44  <-- SCF
      6  -5.19753265E+003 -2.85962860E+000  -4.24232152E-003      48.90  <-- SCF
      7  -5.19745700E+003 -2.67026906E+000  -2.22512324E-003      55.18  <-- SCF
      8  -5.19738007E+003 -2.42876172E+000  -2.26262368E-003      61.30  <-- SCF
      9  -5.19734834E+003 -2.29970752E+000  -9.33266875E-004      67.58  <-- SCF
     10  -5.19735848E+003 -2.15680691E+000   2.98417304E-004      73.87  <-- SCF
     11  -5.19737146E+003 -2.07669363E+000   3.81554198E-004      79.96  <-- SCF
     12  -5.19737857E+003 -2.00247295E+000   2.09311082E-004      85.72  <-- SCF
     13  -5.19737727E+003 -1.91376599E+000  -3.84308921E-005      91.51  <-- SCF
     14  -5.19737467E+003 -1.84244633E+000  -7.63928149E-005      97.06  <-- SCF
     15  -5.19737241E+003 -1.76999195E+000  -6.65051697E-005     102.46  <-- SCF
     16  -5.19737807E+003 -1.71010521E+000   1.66590805E-004     107.77  <-- SCF
     17  -5.19738437E+003 -1.69283508E+000   1.85159895E-004     112.84  <-- SCF
     18  -5.19738765E+003 -1.68994429E+000   9.66042441E-005     117.84  <-- SCF
     19  -5.19738843E+003 -1.68931048E+000   2.29102239E-005     122.80  <-- SCF
     20  -5.19738864E+003 -1.68919398E+000   6.30833525E-006     127.62  <-- SCF
     21  -5.19738869E+003 -1.68920495E+000   1.36462533E-006     132.64  <-- SCF
     22  -5.19738874E+003 -1.68901397E+000   1.42828183E-006     137.75  <-- SCF
     23  -5.19738877E+003 -1.68872301E+000   8.16298827E-007     142.83  <-- SCF
     24  -5.19738879E+003 -1.68860041E+000   8.01300191E-007     147.72  <-- SCF
     25  -5.19738881E+003 -1.68850827E+000   4.83078269E-007     152.84  <-- SCF
     26  -5.19738884E+003 -1.68838851E+000   9.92211843E-007     157.95  <-- SCF
     27  -5.19738885E+003 -1.68831647E+000   2.72870751E-007     163.21  <-- SCF
     28  -5.19738886E+003 -1.68827867E+000   1.57079368E-007     167.94  <-- SCF
------------------------------------------------------------------------ <-- SCF
 
Final energy, E             =  -5197.266149762     eV
Final free energy (E-TS)    =  -5197.388859530     eV
(energies not corrected for finite basis set)
 
NB est. 0K energy (E-0.5TS)      =  -5197.327504646     eV
 
 WARNING: Your unit cell might be too small to get accurate results for van der Waals
(SEDC) Total Energy Correction : -0.280876E+01 eV

Dispersion corrected final energy*, Ecor          =  -5200.074912012     eV
Dispersion corrected final free energy* (Ecor-TS) =  -5200.197621780     eV
NB dispersion corrected est. 0K energy* (Ecor-0.5TS) =  -5200.136266896     eV

Writing analysis data to 4x4.castep_bin

Writing model to 4x4.check
 
+---------------- MEMORY AND SCRATCH DISK ESTIMATES PER PROCESS --------------+
|                                                     Memory          Disk    |
| Model and support data                               45.7 MB         0.0 MB |
| Electronic energy minimisation requirements          62.0 MB         0.0 MB |
| Geometry minimisation requirements                   71.3 MB         0.0 MB |
|                                               ----------------------------- |
| Approx. total storage required per process          179.0 MB         0.0 MB |
|                                                                             |
| Requirements will fluctuate during execution and may exceed these estimates |
+-----------------------------------------------------------------------------+
 
 
 ************************************** Forces **************************************
 *                                                                                  *
 *                           Cartesian components (eV/A)                            *
 * -------------------------------------------------------------------------------- *
 *                         x                    y                    z              *
 *                                                                                  *
 * H               1     -0.02808             -0.14609             10.25713         *
 * H               2     -0.09417              0.20097              6.79120         *
 * C               1      0.05035              0.44266              0.02092         *
 * C               2     -0.35370              0.19238              0.08166         *
 * C               3      0.38812             -0.45374              0.00935         *
 * C               4     -0.01242             -0.12072              0.02870         *
 * C               5      0.32278              0.00449             -0.00320         *
 * C               6     -0.02092             -0.30990              0.02918         *
 * C               7     -0.17797              0.11620              0.01101         *
 * C               8      0.24009              0.35521             -0.03316         *
 * C               9      0.14990              0.86105              0.00015         *
 * C              10     -0.16935             -0.42521             -0.03923         *
 * C              11     -0.13734              0.61411             -6.06475         *
 * C              12     -2.91353             -1.55155             -1.43520         *
 * C              13      1.04897             -0.62849              0.03085         *
 * C              14     -0.54174              0.13642              0.01257         *
 * C              15      0.14180             -0.25287             -0.00190         *
 * C              16      0.08024             -0.05774              0.00137         *
 * C              17     -0.11865             -0.14749             -0.01866         *
 * C              18      0.28350              0.16363              0.03406         *
 * C              19     -0.19924              0.12053              0.00715         *
 * C              20      2.78377             -2.14943             -1.57128         *
 * C              21     -0.28764             -0.44431             -2.79509         *
 * C              22     -2.88344              1.72211             -2.63998         *
 * C              23      0.52208             -0.06673              0.00718         *
 * C              24     -0.35182              0.40246              0.01469         *
 * C              25      0.12064             -0.05147             -0.00858         *
 * C              26      0.08658              0.05280              0.03068         *
 * C              27      0.04638              0.18008             -0.01806         *
 * C              28      0.01705             -0.01546              0.07675         *
 * C              29     -0.66732             -0.56314             -0.01369         *
 * C              30      3.04922             -1.22598             -1.32070         *
 * C              31     -0.29896             -0.25684              0.02128         *
 * C              32     -0.07521              3.30204             -1.50240         *
 *                                                                                  *
 ************************************************************************************
 LBFGS: finished iteration     0 with enthalpy= -5.20019762E+003 eV
  
 +-----------+-----------------+-----------------+------------+-----+ <-- LBFGS
 | Parameter |      value      |    tolerance    |    units   | OK? | <-- LBFGS
 +-----------+-----------------+-----------------+------------+-----+ <-- LBFGS
 |  dE/ion   |   0.000000E+000 |   2.000000E-005 |         eV | No  | <-- LBFGS
 |  |F|max   |   1.025820E+001 |   1.000000E-002 |       eV/A | No  | <-- LBFGS
 |  |dR|max  |   0.000000E+000 |   1.000000E-003 |          A | No  | <-- LBFGS
 +-----------+-----------------+-----------------+------------+-----+ <-- LBFGS
  

================================================================================
 Starting LBFGS iteration          1 ...
================================================================================
  
 +------------+-------------+-------------+-----------------+ <-- min LBFGS
 |    Step    |   lambda    |   F.delta'  |    enthalpy     | <-- min LBFGS
 +------------+-------------+-------------+-----------------+ <-- min LBFGS
 |  previous  |    0.000000 |    9.129606 |    -5200.197622 | <-- min LBFGS
 +------------+-------------+-------------+-----------------+ <-- min LBFGS
  

--------------------------------------------------------------------------------
 LBFGS: starting iteration         1 with trial guess (lambda=  1.000000)
--------------------------------------------------------------------------------
 
                           -------------------------------
                                     Cell Contents
                           -------------------------------
 
            xxxxxxxxxxxxxxxxxxxxxxxxxxxxxxxxxxxxxxxxxxxxxxxxxxxxxxxxxxxxxxxxx
            x  Element         Atom        Fractional coordinates of atoms  x
            x                 Number           u          v          w      x
            x---------------------------------------------------------------x
            x  H                 1         0.416100   0.329538   0.550795   x
            x  H                 2         0.669486   0.590549   0.551847   x
            x  C                 1         0.166743   0.083600   0.500011   x
            x  C                 2        -0.000312   0.000053   0.500038   x
            x  C                 3         0.166557   0.332782   0.500007   x
            x  C                 4        -0.000245   0.249694   0.500015   x
            x  C                 5         0.166803   0.583409   0.500001   x
            x  C                 6        -0.000282   0.499634   0.500015   x
            x  C                 7         0.166446   0.833546   0.500007   x
            x  C                 8         0.000339   0.750422   0.499988   x
            x  C                 9         0.417121   0.084021   0.500003   x
            x  C                10         0.249509  -0.000626   0.499986   x
            x  C                11         0.416781   0.333903   0.497398   x
            x  C                12         0.246536   0.248267   0.499386   x
            x  C                13         0.417264   0.582842   0.500016   x
            x  C                14         0.249486   0.500118   0.500008   x
            x  C                15         0.416654   0.833222   0.500002   x
            x  C                16         0.250001   0.750065   0.500003   x
            x  C                17         0.666536   0.083077   0.499994   x
            x  C                18         0.500334   0.000013   0.500017   x
            x  C                19         0.666656   0.333477   0.500006   x
            x  C                20         0.501355   0.247701   0.499328   x
            x  C                21         0.666342   0.583063   0.498802   x
            x  C                22         0.498421   0.501782   0.498869   x
            x  C                23         0.667209   0.833468   0.500006   x
            x  C                24         0.500013   0.750598   0.500009   x
            x  C                25         0.916796   0.083220   0.499999   x
            x  C                26         0.750227  -0.000040   0.500016   x
            x  C                27         0.916901   0.333560   0.499995   x
            x  C                28         0.750159   0.249905   0.500035   x
            x  C                29         0.915972   0.582943   0.499997   x
            x  C                30         0.752254   0.498853   0.499435   x
            x  C                31         0.916379   0.833218   0.500012   x
            x  C                32         0.751797   0.753501   0.499357   x
            xxxxxxxxxxxxxxxxxxxxxxxxxxxxxxxxxxxxxxxxxxxxxxxxxxxxxxxxxxxxxxxxx
 
 
------------------------------------------------------------------------ <-- SCF
SCF loop      Energy           Fermi           Energy gain       Timer   <-- SCF
                               energy          per atom          (sec)   <-- SCF
------------------------------------------------------------------------ <-- SCF
Initial  -5.18865450E+003  0.00000000E+000                       174.01  <-- SCF
      1  -5.19879053E+003 -1.65755671E+000   2.98118737E-001     179.05  <-- SCF
      2  -5.19890619E+003 -1.65878521E+000   3.40172588E-003     186.28  <-- SCF
      3  -5.19876451E+003 -1.70180517E+000  -4.16719057E-003     192.51  <-- SCF
      4  -5.19875870E+003 -1.69467964E+000  -1.70725878E-004     198.60  <-- SCF
      5  -5.19875877E+003 -1.69663612E+000   1.97130058E-006     204.80  <-- SCF
      6  -5.19875873E+003 -1.69625611E+000  -1.22452049E-006     210.72  <-- SCF
      7  -5.19875875E+003 -1.69597271E+000   6.83592792E-007     215.75  <-- SCF
      8  -5.19875877E+003 -1.69602489E+000   4.41919576E-007     220.86  <-- SCF
      9  -5.19875879E+003 -1.69602980E+000   5.41611100E-007     225.89  <-- SCF
------------------------------------------------------------------------ <-- SCF
 
Final energy, E             =  -5198.631918664     eV
Final free energy (E-TS)    =  -5198.758785612     eV
(energies not corrected for finite basis set)
 
NB est. 0K energy (E-0.5TS)      =  -5198.695352138     eV
 
(SEDC) Total Energy Correction : -0.281761E+01 eV

Dispersion corrected final energy*, Ecor          =  -5201.449524938     eV
Dispersion corrected final free energy* (Ecor-TS) =  -5201.576391886     eV
NB dispersion corrected est. 0K energy* (Ecor-0.5TS) =  -5201.512958412     eV
 
 ************************************** Forces **************************************
 *                                                                                  *
 *                           Cartesian components (eV/A)                            *
 * -------------------------------------------------------------------------------- *
 *                         x                    y                    z              *
 *                                                                                  *
 * H               1     -0.09358              0.07450              2.67570         *
 * H               2     -0.05793              0.00627              2.84125         *
 * C               1     -0.27985             -0.33608             -0.04218         *
 * C               2     -0.05275              0.04934              0.11798         *
 * C               3     -0.51413             -0.12392             -0.05427         *
 * C               4     -0.02830             -0.03456              0.04222         *
 * C               5      0.04018             -0.01540              0.01882         *
 * C               6      0.04100             -0.10927              0.04409         *
 * C               7     -0.03350             -0.02582              0.02290         *
 * C               8     -0.07374              0.01754             -0.01866         *
 * C               9      0.28960             -0.27869             -0.06651         *
 * C              10     -0.04965              0.12039             -0.04590         *
 * C              11     -0.22286             -0.31105              1.20242         *
 * C              12     -0.86623             -0.53292             -1.25137         *
 * C              13     -0.44616              0.26939             -0.10587         *
 * C              14     -0.02373             -0.11946              0.01802         *
 * C              15      0.05310             -0.03284              0.01911         *
 * C              16      0.03963             -0.01866             -0.00040         *
 * C              17      0.05554             -0.06555             -0.00067         *
 * C              18      0.10958              0.01119              0.05843         *
 * C              19      0.76626             -0.29430             -0.13260         *
 * C              20      0.84123             -0.43726             -1.36594         *
 * C              21      0.10977              0.46081              1.09689         *
 * C              22     -0.97623              0.41054             -2.46605         *
 * C              23     -0.04701              0.45720             -0.07688         *
 * C              24      0.04141              0.07647              0.05722         *
 * C              25     -0.03471              0.01565             -0.00885         *
 * C              26      0.01263              0.07498              0.03079         *
 * C              27      0.06389             -0.00532              0.00085         *
 * C              28      0.02174             -0.01024              0.09998         *
 * C              29      0.30331             -0.16040             -0.07538         *
 * C              30      0.90153             -0.67688             -1.25124         *
 * C              31      0.07589              0.38481             -0.05717         *
 * C              32      0.03408              1.15954             -1.32674         *
 *                                                                                  *
 ************************************************************************************
  
 +------------+-------------+-------------+-----------------+ <-- min LBFGS
 |    Step    |   lambda    |   F.delta'  |    enthalpy     | <-- min LBFGS
 +------------+-------------+-------------+-----------------+ <-- min LBFGS
 |  previous  |    0.000000 |    9.129606 |    -5200.197622 | <-- min LBFGS
 | trial step |    1.000000 |    2.202085 |    -5201.576392 | <-- min LBFGS
 +------------+-------------+-------------+-----------------+ <-- min LBFGS
  
 LBFGS: finished iteration     1 with enthalpy= -5.20157639E+003 eV
  
 +-----------+-----------------+-----------------+------------+-----+ <-- LBFGS
 | Parameter |      value      |    tolerance    |    units   | OK? | <-- LBFGS
 +-----------+-----------------+-----------------+------------+-----+ <-- LBFGS
 |  dE/ion   |   4.055206E-002 |   2.000000E-005 |         eV | No  | <-- LBFGS
 |  |F|max   |   2.841851E+000 |   1.000000E-002 |       eV/A | No  | <-- LBFGS
 |  |dR|max  |   8.825139E-002 |   1.000000E-003 |          A | No  | <-- LBFGS
 +-----------+-----------------+-----------------+------------+-----+ <-- LBFGS
  

================================================================================
 Starting LBFGS iteration          2 ...
================================================================================
  
 +------------+-------------+-------------+-----------------+ <-- min LBFGS
 |    Step    |   lambda    |   F.delta'  |    enthalpy     | <-- min LBFGS
 +------------+-------------+-------------+-----------------+ <-- min LBFGS
 |  previous  |    0.000000 |    3.385962 |    -5201.576392 | <-- min LBFGS
 +------------+-------------+-------------+-----------------+ <-- min LBFGS
  

--------------------------------------------------------------------------------
 LBFGS: starting iteration         2 with trial guess (lambda=  1.000000)
--------------------------------------------------------------------------------
 
                           -------------------------------
                                     Cell Contents
                           -------------------------------
 
            xxxxxxxxxxxxxxxxxxxxxxxxxxxxxxxxxxxxxxxxxxxxxxxxxxxxxxxxxxxxxxxxx
            x  Element         Atom        Fractional coordinates of atoms  x
            x                 Number           u          v          w      x
            x---------------------------------------------------------------x
            x  H                 1         0.416028   0.329615   0.552954   x
            x  H                 2         0.669426   0.590587   0.553881   x
            x  C                 1         0.166238   0.083220   0.499989   x
            x  C                 2        -0.000370   0.000147   0.500109   x
            x  C                 3         0.165901   0.332552   0.499976   x
            x  C                 4        -0.000311   0.249630   0.500041   x
            x  C                 5         0.166881   0.583389   0.500012   x
            x  C                 6        -0.000333   0.499444   0.500042   x
            x  C                 7         0.166377   0.833529   0.500021   x
            x  C                 8         0.000323   0.750497   0.499976   x
            x  C                 9         0.417351   0.083778   0.499965   x
            x  C                10         0.249479  -0.000529   0.499957   x
            x  C                11         0.416347   0.333581   0.497698   x
            x  C                12         0.244704   0.247332   0.498588   x
            x  C                13         0.417018   0.583107   0.499958   x
            x  C                14         0.249321   0.499980   0.500019   x
            x  C                15         0.416692   0.833141   0.500012   x
            x  C                16         0.250040   0.750032   0.500003   x
            x  C                17         0.666531   0.082968   0.499993   x
            x  C                18         0.500515   0.000051   0.500052   x
            x  C                19         0.667324   0.333104   0.499931   x
            x  C                20         0.502227   0.246805   0.498456   x
            x  C                21         0.666704   0.583608   0.499247   x
            x  C                22         0.497332   0.502579   0.497307   x
            x  C                23         0.667519   0.834064   0.499963   x
            x  C                24         0.500096   0.750758   0.500042   x
            x  C                25         0.916778   0.083233   0.499993   x
            x  C                26         0.750306   0.000067   0.500035   x
            x  C                27         0.916990   0.333579   0.499994   x
            x  C                28         0.750179   0.249889   0.500097   x
            x  C                29         0.916087   0.582648   0.499953   x
            x  C                30         0.753138   0.497776   0.498644   x
            x  C                31         0.916664   0.833690   0.499981   x
            x  C                32         0.752837   0.755523   0.498512   x
            xxxxxxxxxxxxxxxxxxxxxxxxxxxxxxxxxxxxxxxxxxxxxxxxxxxxxxxxxxxxxxxxx
 
 
------------------------------------------------------------------------ <-- SCF
SCF loop      Energy           Fermi           Energy gain       Timer   <-- SCF
                               energy          per atom          (sec)   <-- SCF
------------------------------------------------------------------------ <-- SCF
Initial  -5.19549145E+003  0.00000000E+000                       230.31  <-- SCF
      1  -5.19916570E+003 -1.75327871E+000   1.08066184E-001     235.14  <-- SCF
      2  -5.19919113E+003 -1.75458090E+000   7.47984625E-004     242.53  <-- SCF
      3  -5.19917540E+003 -1.76045023E+000  -4.62724016E-004     248.89  <-- SCF
      4  -5.19917463E+003 -1.75700922E+000  -2.25299916E-005     255.05  <-- SCF
      5  -5.19917450E+003 -1.75687157E+000  -3.70033506E-006     261.27  <-- SCF
      6  -5.19917448E+003 -1.75705672E+000  -6.87954689E-007     266.33  <-- SCF
      7  -5.19917451E+003 -1.75674402E+000   7.22998541E-007     271.39  <-- SCF
------------------------------------------------------------------------ <-- SCF
 
Final energy, E             =  -5199.034970450     eV
Final free energy (E-TS)    =  -5199.174505416     eV
(energies not corrected for finite basis set)
 
NB est. 0K energy (E-0.5TS)      =  -5199.104737933     eV
 
(SEDC) Total Energy Correction : -0.281878E+01 eV

Dispersion corrected final energy*, Ecor          =  -5201.853752736     eV
Dispersion corrected final free energy* (Ecor-TS) =  -5201.993287703     eV
NB dispersion corrected est. 0K energy* (Ecor-0.5TS) =  -5201.923520219     eV
 
 ************************************** Forces **************************************
 *                                                                                  *
 *                           Cartesian components (eV/A)                            *
 * -------------------------------------------------------------------------------- *
 *                         x                    y                    z              *
 *                                                                                  *
 * H               1     -0.08373              0.12934              1.38291         *
 * H               2     -0.05865             -0.08870              1.67282         *
 * C               1     -0.26678             -0.29775             -0.12424         *
 * C               2     -0.03177              0.01790              0.10352         *
 * C               3     -0.43751             -0.03517             -0.14233         *
 * C               4     -0.18742             -0.05111              0.03391         *
 * C               5     -0.00669             -0.06849              0.04396         *
 * C               6      0.17547             -0.02706              0.03637         *
 * C               7      0.00432             -0.00972              0.03768         *
 * C               8     -0.08071             -0.07111              0.00521         *
 * C               9      0.20799             -0.36094             -0.15204         *
 * C              10      0.01556              0.08480             -0.02143         *
 * C              11     -0.18094             -0.37010              2.09362         *
 * C              12     -0.16563             -0.19667             -0.99223         *
 * C              13     -0.59885              0.32455             -0.28766         *
 * C              14     -0.11629             -0.10358              0.03423         *
 * C              15      0.06153              0.03836              0.04759         *
 * C              16      0.00190             -0.00115             -0.00175         *
 * C              17      0.08255              0.02938              0.02636         *
 * C              18      0.12261             -0.15481              0.05088         *
 * C              19      0.57584             -0.32835             -0.30563         *
 * C              20      0.12410              0.07943             -1.09391         *
 * C              21      0.12531              0.42691              1.89694         *
 * C              22     -0.05131             -0.00085             -2.01327         *
 * C              23     -0.16227              0.40011             -0.16810         *
 * C              24      0.04258              0.14753              0.07420         *
 * C              25     -0.04983              0.03907              0.00153         *
 * C              26     -0.03959              0.19004              0.02148         *
 * C              27      0.02249             -0.09270              0.02748         *
 * C              28      0.32350             -0.17644              0.08751         *
 * C              29      0.41193             -0.01495             -0.14967         *
 * C              30      0.01669             -0.14742             -1.01638         *
 * C              31      0.11542              0.40897             -0.14529         *
 * C              32      0.08819              0.28070             -1.06428         *
 *                                                                                  *
 ************************************************************************************
  
 +------------+-------------+-------------+-----------------+ <-- min LBFGS
 |    Step    |   lambda    |   F.delta'  |    enthalpy     | <-- min LBFGS
 +------------+-------------+-------------+-----------------+ <-- min LBFGS
 |  previous  |    0.000000 |    3.385962 |    -5201.576392 | <-- min LBFGS
 | trial step |    1.000000 |    2.111147 |    -5201.993288 | <-- min LBFGS
 +------------+-------------+-------------+-----------------+ <-- min LBFGS
  

--------------------------------------------------------------------------------
 LBFGS: improving iteration         2 with line minimization (lambda=  2.656042)
--------------------------------------------------------------------------------
 
                           -------------------------------
                                     Cell Contents
                           -------------------------------
 
            xxxxxxxxxxxxxxxxxxxxxxxxxxxxxxxxxxxxxxxxxxxxxxxxxxxxxxxxxxxxxxxxx
            x  Element         Atom        Fractional coordinates of atoms  x
            x                 Number           u          v          w      x
            x---------------------------------------------------------------x
            x  H                 1         0.415908   0.329743   0.556528   x
            x  H                 2         0.669328   0.590650   0.557250   x
            x  C                 1         0.165402   0.082590   0.499952   x
            x  C                 2        -0.000468   0.000302   0.500229   x
            x  C                 3         0.164815   0.332169   0.499927   x
            x  C                 4        -0.000420   0.249525   0.500083   x
            x  C                 5         0.167009   0.583356   0.500029   x
            x  C                 6        -0.000417   0.499128   0.500086   x
            x  C                 7         0.166261   0.833501   0.500043   x
            x  C                 8         0.000296   0.750622   0.499955   x
            x  C                 9         0.417732   0.083376   0.499903   x
            x  C                10         0.249429  -0.000369   0.499910   x
            x  C                11         0.415628   0.333048   0.498194   x
            x  C                12         0.241670   0.245785   0.497266   x
            x  C                13         0.416610   0.583545   0.499862   x
            x  C                14         0.249047   0.499751   0.500037   x
            x  C                15         0.416756   0.833008   0.500030   x
            x  C                16         0.250105   0.749977   0.500003   x
            x  C                17         0.666521   0.082788   0.499990   x
            x  C                18         0.500816   0.000116   0.500111   x
            x  C                19         0.668430   0.332488   0.499807   x
            x  C                20         0.503671   0.245322   0.497013   x
            x  C                21         0.667303   0.584511   0.499985   x
            x  C                22         0.495529   0.503900   0.494722   x
            x  C                23         0.668033   0.835051   0.499891   x
            x  C                24         0.500233   0.751024   0.500097   x
            x  C                25         0.916748   0.083255   0.499984   x
            x  C                26         0.750437   0.000244   0.500067   x
            x  C                27         0.917138   0.333612   0.499993   x
            x  C                28         0.750210   0.249863   0.500199   x
            x  C                29         0.916278   0.582159   0.499881   x
            x  C                30         0.754602   0.495992   0.497334   x
            x  C                31         0.917136   0.834472   0.499929   x
            x  C                32         0.754560   0.758872   0.497113   x
            xxxxxxxxxxxxxxxxxxxxxxxxxxxxxxxxxxxxxxxxxxxxxxxxxxxxxxxxxxxxxxxxx
 
 
------------------------------------------------------------------------ <-- SCF
SCF loop      Energy           Fermi           Energy gain       Timer   <-- SCF
                               energy          per atom          (sec)   <-- SCF
------------------------------------------------------------------------ <-- SCF
Initial  -5.19174952E+003  0.00000000E+000                       275.79  <-- SCF
      1  -5.19937985E+003 -1.86682559E+000   2.24421444E-001     280.72  <-- SCF
      2  -5.19949755E+003 -1.87434657E+000   3.46173406E-003     287.92  <-- SCF
      3  -5.19945708E+003 -1.87242050E+000  -1.19022412E-003     294.44  <-- SCF
      4  -5.19945370E+003 -1.87456281E+000  -9.94968857E-005     300.42  <-- SCF
      5  -5.19945127E+003 -1.87083551E+000  -7.14993595E-005     306.43  <-- SCF
      6  -5.19945145E+003 -1.87186219E+000   5.34412407E-006     312.33  <-- SCF
      7  -5.19945162E+003 -1.87178547E+000   5.04833520E-006     317.59  <-- SCF
      8  -5.19945183E+003 -1.87220738E+000   6.10265256E-006     322.71  <-- SCF
      9  -5.19945203E+003 -1.87276140E+000   5.92578755E-006     327.86  <-- SCF
     10  -5.19945221E+003 -1.87342730E+000   5.33506713E-006     332.97  <-- SCF
     11  -5.19945229E+003 -1.87401569E+000   2.41676353E-006     338.09  <-- SCF
     12  -5.19945234E+003 -1.87479458E+000   1.35233376E-006     343.13  <-- SCF
     13  -5.19945236E+003 -1.87563824E+000   5.38096183E-007     348.28  <-- SCF
     14  -5.19945237E+003 -1.87653972E+000   4.72273407E-007     353.51  <-- SCF
     15  -5.19945240E+003 -1.87725578E+000   8.86262356E-007     358.71  <-- SCF
     16  -5.19945244E+003 -1.87757449E+000   1.11716322E-006     363.74  <-- SCF
     17  -5.19945246E+003 -1.87770172E+000   5.86861525E-007     368.78  <-- SCF
     18  -5.19945247E+003 -1.87774350E+000   3.51257656E-007     373.83  <-- SCF
------------------------------------------------------------------------ <-- SCF
 
Final energy, E             =  -5199.287837425     eV
Final free energy (E-TS)    =  -5199.452474492     eV
(energies not corrected for finite basis set)
 
NB est. 0K energy (E-0.5TS)      =  -5199.370155959     eV
 
(SEDC) Total Energy Correction : -0.282122E+01 eV

Dispersion corrected final energy*, Ecor          =  -5202.109060537     eV
Dispersion corrected final free energy* (Ecor-TS) =  -5202.273697605     eV
NB dispersion corrected est. 0K energy* (Ecor-0.5TS) =  -5202.191379071     eV
 
 ************************************** Forces **************************************
 *                                                                                  *
 *                           Cartesian components (eV/A)                            *
 * -------------------------------------------------------------------------------- *
 *                         x                    y                    z              *
 *                                                                                  *
 * H               1     -0.05725              0.17143             -0.21672         *
 * H               2     -0.04415             -0.19829              0.14981         *
 * C               1     -0.23998             -0.23660             -0.25442         *
 * C               2      0.00285             -0.03511              0.08728         *
 * C               3     -0.29524              0.11523             -0.28300         *
 * C               4     -0.46174             -0.08029              0.02442         *
 * C               5     -0.07593             -0.15838              0.08703         *
 * C               6      0.39461              0.11524              0.02726         *
 * C               7      0.07502              0.01862              0.06421         *
 * C               8     -0.10732             -0.21241              0.04489         *
 * C               9      0.07905             -0.50369             -0.28453         *
 * C              10      0.11100              0.02902              0.02043         *
 * C              11     -0.15346             -0.38456              2.96325         *
 * C              12      0.95700              0.35694             -0.56169         *
 * C              13     -0.88090              0.43185             -0.55841         *
 * C              14     -0.27183             -0.06231              0.07148         *
 * C              15      0.07914              0.15085              0.09630         *
 * C              16     -0.06708              0.02933             -0.00256         *
 * C              17      0.12977              0.19174              0.07426         *
 * C              18      0.14155             -0.42765              0.04264         *
 * C              19      0.23554             -0.40501             -0.58420         *
 * C              20     -0.99320              0.90326             -0.63911         *
 * C              21      0.07761              0.34631              2.65755         *
 * C              22      1.49043             -0.69549             -1.25327         *
 * C              23     -0.36936              0.30384             -0.31002         *
 * C              24      0.03703              0.26027              0.11081         *
 * C              25     -0.07174              0.07727              0.01919         *
 * C              26     -0.13044              0.38190              0.00993         *
 * C              27     -0.04728             -0.24346              0.07506         *
 * C              28      0.85218             -0.47038              0.07779         *
 * C              29      0.61106              0.23089             -0.26295         *
 * C              30     -1.37581              0.70480             -0.60103         *
 * C              31      0.20277              0.45218             -0.28184         *
 * C              32      0.16611             -1.15732             -0.60981         *
 *                                                                                  *
 ************************************************************************************
  
 +------------+-------------+-------------+-----------------+ <-- min LBFGS
 |    Step    |   lambda    |   F.delta'  |    enthalpy     | <-- min LBFGS
 +------------+-------------+-------------+-----------------+ <-- min LBFGS
 |  previous  |    0.000000 |    3.385962 |    -5201.576392 | <-- min LBFGS
 | trial step |    1.000000 |    2.111147 |    -5201.993288 | <-- min LBFGS
 |  line step |    2.656042 |    0.212266 |    -5202.273698 | <-- min LBFGS
 +------------+-------------+-------------+-----------------+ <-- min LBFGS
  
 LBFGS: finished iteration     2 with enthalpy= -5.20227370E+003 eV
  
 +-----------+-----------------+-----------------+------------+-----+ <-- LBFGS
 | Parameter |      value      |    tolerance    |    units   | OK? | <-- LBFGS
 +-----------+-----------------+-----------------+------------+-----+ <-- LBFGS
 |  dE/ion   |   2.050899E-002 |   2.000000E-005 |         eV | No  | <-- LBFGS
 |  |F|max   |   2.992038E+000 |   1.000000E-002 |       eV/A | No  | <-- LBFGS
 |  |dR|max  |   1.148933E-001 |   1.000000E-003 |          A | No  | <-- LBFGS
 +-----------+-----------------+-----------------+------------+-----+ <-- LBFGS
  

================================================================================
 Starting LBFGS iteration          3 ...
================================================================================
  
 +------------+-------------+-------------+-----------------+ <-- min LBFGS
 |    Step    |   lambda    |   F.delta'  |    enthalpy     | <-- min LBFGS
 +------------+-------------+-------------+-----------------+ <-- min LBFGS
 |  previous  |    0.000000 |    2.482294 |    -5202.273698 | <-- min LBFGS
 +------------+-------------+-------------+-----------------+ <-- min LBFGS
  

--------------------------------------------------------------------------------
 LBFGS: starting iteration         3 with trial guess (lambda=  1.000000)
--------------------------------------------------------------------------------
 
                           -------------------------------
                                     Cell Contents
                           -------------------------------
 
            xxxxxxxxxxxxxxxxxxxxxxxxxxxxxxxxxxxxxxxxxxxxxxxxxxxxxxxxxxxxxxxxx
            x  Element         Atom        Fractional coordinates of atoms  x
            x                 Number           u          v          w      x
            x---------------------------------------------------------------x
            x  H                 1         0.415903   0.329950   0.557896   x
            x  H                 2         0.669153   0.590475   0.558581   x
            x  C                 1         0.164835   0.082197   0.499825   x
            x  C                 2        -0.000533   0.000328   0.500307   x
            x  C                 3         0.164297   0.332137   0.499783   x
            x  C                 4        -0.000930   0.249396   0.500108   x
            x  C                 5         0.166918   0.583177   0.500074   x
            x  C                 6        -0.000030   0.499130   0.500113   x
            x  C                 7         0.166298   0.833524   0.500080   x
            x  C                 8         0.000112   0.750465   0.499968   x
            x  C                 9         0.417700   0.082803   0.499754   x
            x  C                10         0.249498  -0.000332   0.499904   x
            x  C                11         0.415089   0.332541   0.499442   x
            x  C                12         0.241546   0.245567   0.496565   x
            x  C                13         0.415963   0.584074   0.499579   x
            x  C                14         0.248642   0.499631   0.500076   x
            x  C                15         0.416929   0.833106   0.500079   x
            x  C                16         0.250081   0.749986   0.500002   x
            x  C                17         0.666725   0.082927   0.500023   x
            x  C                18         0.500837  -0.000308   0.500149   x
            x  C                19         0.668741   0.331886   0.499504   x
            x  C                20         0.503784   0.245650   0.496235   x
            x  C                21         0.667689   0.585101   0.501300   x
            x  C                22         0.495857   0.503706   0.493286   x
            x  C                23         0.668044   0.835657   0.499729   x
            x  C                24         0.500437   0.751420   0.500165   x
            x  C                25         0.916722   0.083339   0.499990   x
            x  C                26         0.750569   0.000710   0.500082   x
            x  C                27         0.917019   0.333377   0.500026   x
            x  C                28         0.750760   0.249349   0.500267   x
            x  C                29         0.916941   0.582209   0.499739   x
            x  C                30         0.754326   0.496110   0.496623   x
            x  C                31         0.917666   0.835159   0.499786   x
            x  C                32         0.754750   0.758926   0.496364   x
            xxxxxxxxxxxxxxxxxxxxxxxxxxxxxxxxxxxxxxxxxxxxxxxxxxxxxxxxxxxxxxxxx
 
 
------------------------------------------------------------------------ <-- SCF
SCF loop      Energy           Fermi           Energy gain       Timer   <-- SCF
                               energy          per atom          (sec)   <-- SCF
------------------------------------------------------------------------ <-- SCF
Initial  -5.19668776E+003  0.00000000E+000                       378.27  <-- SCF
      1  -5.19967985E+003 -1.94838173E+000   8.80026165E-002     383.10  <-- SCF
      2  -5.19969873E+003 -1.94924657E+000   5.55325060E-004     390.58  <-- SCF
      3  -5.19969065E+003 -1.93752295E+000  -2.37529130E-004     396.74  <-- SCF
      4  -5.19968996E+003 -1.94384774E+000  -2.03851458E-005     402.77  <-- SCF
      5  -5.19968882E+003 -1.94078960E+000  -3.34295550E-005     408.66  <-- SCF
      6  -5.19968900E+003 -1.94091160E+000   5.13207478E-006     413.76  <-- SCF
      7  -5.19968904E+003 -1.94118458E+000   1.27869952E-006     419.02  <-- SCF
      8  -5.19968910E+003 -1.94152807E+000   1.86791382E-006     424.00  <-- SCF
      9  -5.19968920E+003 -1.94198199E+000   2.78944961E-006     429.03  <-- SCF
     10  -5.19968926E+003 -1.94239204E+000   1.88608754E-006     434.10  <-- SCF
     11  -5.19968930E+003 -1.94270909E+000   1.13863173E-006     439.21  <-- SCF
     12  -5.19968933E+003 -1.94316247E+000   9.10715144E-007     444.21  <-- SCF
     13  -5.19968934E+003 -1.94342702E+000   1.59179202E-007     449.34  <-- SCF
     14  -5.19968934E+003 -1.94392503E+000   1.90369595E-008     454.31  <-- SCF
------------------------------------------------------------------------ <-- SCF
 
Final energy, E             =  -5199.511020481     eV
Final free energy (E-TS)    =  -5199.689337292     eV
(energies not corrected for finite basis set)
 
NB est. 0K energy (E-0.5TS)      =  -5199.600178887     eV
 
(SEDC) Total Energy Correction : -0.282071E+01 eV

Dispersion corrected final energy*, Ecor          =  -5202.331727145     eV
Dispersion corrected final free energy* (Ecor-TS) =  -5202.510043956     eV
NB dispersion corrected est. 0K energy* (Ecor-0.5TS) =  -5202.420885550     eV
 
 ************************************** Forces **************************************
 *                                                                                  *
 *                           Cartesian components (eV/A)                            *
 * -------------------------------------------------------------------------------- *
 *                         x                    y                    z              *
 *                                                                                  *
 * H               1     -0.04467              0.17818             -0.33240         *
 * H               2     -0.04734             -0.21399              0.07058         *
 * C               1     -0.03969              0.00350             -0.30083         *
 * C               2     -0.04067              0.04688              0.02737         *
 * C               3     -0.03506              0.00712             -0.33483         *
 * C               4     -0.25156             -0.05568              0.00832         *
 * C               5     -0.09472             -0.04275              0.10664         *
 * C               6      0.25431              0.04424              0.00221         *
 * C               7      0.05573             -0.02130              0.08061         *
 * C               8      0.02680             -0.07385              0.04960         *
 * C               9      0.01146             -0.14504             -0.33852         *
 * C              10      0.07332             -0.04180              0.02910         *
 * C              11      0.03029             -0.14032              2.57984         *
 * C              12      0.73564              0.36139             -0.29929         *
 * C              13     -0.03160             -0.00746             -0.69805         *
 * C              14     -0.21353             -0.02188              0.04814         *
 * C              15     -0.00160              0.07743              0.11976         *
 * C              16     -0.04010              0.02434              0.00675         *
 * C              17      0.11797              0.07460              0.09570         *
 * C              18      0.07963             -0.23071              0.01594         *
 * C              19     -0.04903             -0.08032             -0.69374         *
 * C              20     -0.88107              0.51396             -0.34241         *
 * C              21      0.01650              0.10396              2.18215         *
 * C              22      0.84931             -0.36323             -0.69488         *
 * C              23     -0.07303              0.06915             -0.36083         *
 * C              24     -0.03975              0.17909              0.08094         *
 * C              25     -0.08782              0.05743              0.03242         *
 * C              26     -0.06766              0.24592             -0.00791         *
 * C              27      0.01793             -0.13546              0.09649         *
 * C              28      0.51919             -0.30510              0.02936         *
 * C              29      0.17982              0.10834             -0.30838         *
 * C              30     -0.98781              0.63861             -0.30092         *
 * C              31      0.02068              0.06090             -0.32997         *
 * C              32      0.03812             -0.91616             -0.31899         *
 *                                                                                  *
 ************************************************************************************
  
 +------------+-------------+-------------+-----------------+ <-- min LBFGS
 |    Step    |   lambda    |   F.delta'  |    enthalpy     | <-- min LBFGS
 +------------+-------------+-------------+-----------------+ <-- min LBFGS
 |  previous  |    0.000000 |    2.482294 |    -5202.273698 | <-- min LBFGS
 | trial step |    1.000000 |    1.637766 |    -5202.510044 | <-- min LBFGS
 +------------+-------------+-------------+-----------------+ <-- min LBFGS
  

--------------------------------------------------------------------------------
 LBFGS: improving iteration         3 with line minimization (lambda=  2.939267)
--------------------------------------------------------------------------------
 
                           -------------------------------
                                     Cell Contents
                           -------------------------------
 
            xxxxxxxxxxxxxxxxxxxxxxxxxxxxxxxxxxxxxxxxxxxxxxxxxxxxxxxxxxxxxxxxx
            x  Element         Atom        Fractional coordinates of atoms  x
            x                 Number           u          v          w      x
            x---------------------------------------------------------------x
            x  H                 1         0.415892   0.330351   0.560549   x
            x  H                 2         0.668816   0.590136   0.561163   x
            x  C                 1         0.163736   0.081434   0.499580   x
            x  C                 2        -0.000659   0.000379   0.500458   x
            x  C                 3         0.163294   0.332075   0.499504   x
            x  C                 4        -0.001921   0.249147   0.500156   x
            x  C                 5         0.166742   0.582830   0.500160   x
            x  C                 6         0.000720   0.499133   0.500164   x
            x  C                 7         0.166369   0.833569   0.500151   x
            x  C                 8        -0.000244   0.750161   0.499993   x
            x  C                 9         0.417640   0.081693   0.499466   x
            x  C                10         0.249632  -0.000262   0.499893   x
            x  C                11         0.414043   0.331557   0.501862   x
            x  C                12         0.241305   0.245143   0.495204   x
            x  C                13         0.414709   0.585100   0.499032   x
            x  C                14         0.247857   0.499398   0.500150   x
            x  C                15         0.417264   0.833297   0.500175   x
            x  C                16         0.250035   0.750006   0.499999   x
            x  C                17         0.667119   0.083197   0.500086   x
            x  C                18         0.500879  -0.001130   0.500222   x
            x  C                19         0.669346   0.330719   0.498916   x
            x  C                20         0.504001   0.246285   0.494726   x
            x  C                21         0.668437   0.586246   0.503849   x
            x  C                22         0.496492   0.503330   0.490502   x
            x  C                23         0.668064   0.836832   0.499414   x
            x  C                24         0.500832   0.752187   0.500295   x
            x  C                25         0.916672   0.083502   0.500001   x
            x  C                26         0.750824   0.001615   0.500112   x
            x  C                27         0.916788   0.332923   0.500091   x
            x  C                28         0.751825   0.248353   0.500400   x
            x  C                29         0.918226   0.582307   0.499464   x
            x  C                30         0.753791   0.496339   0.495244   x
            x  C                31         0.918694   0.836491   0.499508   x
            x  C                32         0.755117   0.759032   0.494912   x
            xxxxxxxxxxxxxxxxxxxxxxxxxxxxxxxxxxxxxxxxxxxxxxxxxxxxxxxxxxxxxxxxx
 
 
------------------------------------------------------------------------ <-- SCF
SCF loop      Energy           Fermi           Energy gain       Timer   <-- SCF
                               energy          per atom          (sec)   <-- SCF
------------------------------------------------------------------------ <-- SCF
Initial  -5.19064481E+003  0.00000000E+000                       458.71  <-- SCF
      1  -5.19976528E+003 -2.08441422E+000   2.68249264E-001     463.53  <-- SCF
      2  -5.19989677E+003 -2.09146045E+000   3.86723609E-003     470.54  <-- SCF
      3  -5.19987882E+003 -2.05625136E+000  -5.27975729E-004     476.72  <-- SCF
      4  -5.19986158E+003 -2.08036492E+000  -5.07032957E-004     482.69  <-- SCF
      5  -5.19985667E+003 -2.07132280E+000  -1.44299712E-004     488.47  <-- SCF
      6  -5.19985728E+003 -2.07156241E+000   1.78103465E-005     494.57  <-- SCF
      7  -5.19985746E+003 -2.07198289E+000   5.19224096E-006     499.85  <-- SCF
      8  -5.19985767E+003 -2.07284783E+000   6.16832783E-006     504.85  <-- SCF
      9  -5.19985796E+003 -2.07368825E+000   8.55325666E-006     509.90  <-- SCF
     10  -5.19985818E+003 -2.07464412E+000   6.52735439E-006     515.00  <-- SCF
     11  -5.19985829E+003 -2.07530532E+000   3.34888194E-006     520.09  <-- SCF
     12  -5.19985839E+003 -2.07626855E+000   2.95506425E-006     525.12  <-- SCF
     13  -5.19985841E+003 -2.07695494E+000   5.90160779E-007     530.22  <-- SCF
     14  -5.19985842E+003 -2.07802915E+000   6.13736220E-008     535.19  <-- SCF
------------------------------------------------------------------------ <-- SCF
 
Final energy, E             =  -5199.659496893     eV
Final free energy (E-TS)    =  -5199.858415516     eV
(energies not corrected for finite basis set)
 
NB est. 0K energy (E-0.5TS)      =  -5199.758956205     eV
 
(SEDC) Total Energy Correction : -0.281955E+01 eV

Dispersion corrected final energy*, Ecor          =  -5202.479048936     eV
Dispersion corrected final free energy* (Ecor-TS) =  -5202.677967559     eV
NB dispersion corrected est. 0K energy* (Ecor-0.5TS) =  -5202.578508248     eV
 
 ************************************** Forces **************************************
 *                                                                                  *
 *                           Cartesian components (eV/A)                            *
 * -------------------------------------------------------------------------------- *
 *                         x                    y                    z              *
 *                                                                                  *
 * H               1     -0.02373              0.17989             -0.56497         *
 * H               2     -0.05082             -0.23154             -0.09411         *
 * C               1      0.35740              0.47070             -0.39512         *
 * C               2     -0.13217              0.21606             -0.08834         *
 * C               3      0.45334             -0.19787             -0.44019         *
 * C               4      0.16845             -0.00546             -0.02518         *
 * C               5     -0.13266              0.18965              0.14621         *
 * C               6     -0.02721             -0.09418             -0.04894         *
 * C               7      0.01634             -0.09589              0.11438         *
 * C               8      0.27852              0.19588              0.05587         *
 * C               9     -0.11711              0.50837             -0.45441         *
 * C              10     -0.00095             -0.17562              0.04283         *
 * C              11      0.35377              0.36929              1.74934         *
 * C              12      0.36097              0.38571              0.24341         *
 * C              13      1.41403             -0.73758             -0.95749         *
 * C              14     -0.07316              0.06454             -0.00051         *
 * C              15     -0.16377             -0.07079              0.16692         *
 * C              16      0.01350              0.01399              0.02528         *
 * C              17      0.08791             -0.16946              0.13785         *
 * C              18     -0.04520              0.16207             -0.03980         *
 * C              19     -0.58399              0.51437             -0.90258         *
[...]
      C    19      Pz                   1.012
      C    20      S                    1.042
      C    20      Px                   0.966
      C    20      Py                   0.987
      C    20      Pz                   0.991
      C    21      S                    1.173
      C    21      Px                   0.980
      C    21      Py                   0.983
      C    21      Pz                   1.154
      C    22      S                    1.052
      C    22      Px                   0.982
      C    22      Py                   0.961
      C    22      Pz                   0.965
      C    23      S                    1.024
      C    23      Px                   0.990
      C    23      Py                   0.991
      C    23      Pz                   1.002
      C    24      S                    1.031
      C    24      Px                   0.988
      C    24      Py                   0.981
      C    24      Pz                   1.007
      C    25      S                    1.023
      C    25      Px                   0.989
      C    25      Py                   0.988
      C    25      Pz                   1.001
      C    26      S                    1.026
      C    26      Px                   0.988
      C    26      Py                   0.987
      C    26      Pz                   0.997
      C    27      S                    1.025
      C    27      Px                   0.988
      C    27      Py                   0.989
      C    27      Pz                   0.999
      C    28      S                    1.029
      C    28      Px                   0.983
      C    28      Py                   0.987
      C    28      Pz                   0.998
      C    29      S                    1.026
      C    29      Px                   0.991
      C    29      Py                   0.987
      C    29      Pz                   1.004
      C    30      S                    1.042
      C    30      Px                   0.969
      C    30      Py                   0.984
      C    30      Pz                   0.991
      C    31      S                    1.023
      C    31      Px                   0.990
      C    31      Py                   0.990
      C    31      Pz                   1.004
      C    32      S                    1.036
      C    32      Px                   0.996
      C    32      Py                   0.964
      C    32      Pz                   0.984
  -------------------------------------------
                           Total:     129.995
  -------------------------------------------
 
     Atomic Populations (Mulliken)
     -----------------------------
Species          Ion     s       p       d       f      Total   Charge (e)
==========================================================================
  H               1     0.695   0.000   0.000   0.000   0.695     0.305
  H               2     0.696   0.000   0.000   0.000   0.696     0.304
  C               1     1.024   2.983   0.000   0.000   4.007    -0.007
  C               2     1.026   2.971   0.000   0.000   3.998     0.002
  C               3     1.025   2.982   0.000   0.000   4.007    -0.007
  C               4     1.026   2.972   0.000   0.000   3.998     0.002
  C               5     1.028   2.975   0.000   0.000   4.003    -0.003
  C               6     1.028   2.973   0.000   0.000   4.001    -0.001
  C               7     1.028   2.975   0.000   0.000   4.003    -0.003
  C               8     1.031   2.984   0.000   0.000   4.015    -0.015
  C               9     1.027   2.982   0.000   0.000   4.009    -0.009
  C              10     1.031   2.984   0.000   0.000   4.015    -0.015
  C              11     1.173   3.117   0.000   0.000   4.290    -0.290
  C              12     1.036   2.943   0.000   0.000   3.979     0.021
  C              13     1.027   2.988   0.000   0.000   4.015    -0.015
  C              14     1.032   2.975   0.000   0.000   4.007    -0.007
  C              15     1.027   2.976   0.000   0.000   4.003    -0.003
  C              16     1.030   2.975   0.000   0.000   4.005    -0.005
  C              17     1.026   2.975   0.000   0.000   4.001    -0.001
  C              18     1.028   2.973   0.000   0.000   4.001    -0.001
  C              19     1.026   2.992   0.000   0.000   4.018    -0.018
  C              20     1.042   2.944   0.000   0.000   3.986     0.014
  C              21     1.173   3.117   0.000   0.000   4.290    -0.290
  C              22     1.052   2.907   0.000   0.000   3.959     0.041
  C              23     1.024   2.983   0.000   0.000   4.007    -0.007
  C              24     1.031   2.976   0.000   0.000   4.008    -0.008
  C              25     1.023   2.978   0.000   0.000   4.001    -0.001
  C              26     1.026   2.972   0.000   0.000   3.998     0.002
  C              27     1.025   2.976   0.000   0.000   4.001    -0.001
  C              28     1.029   2.968   0.000   0.000   3.997     0.003
  C              29     1.026   2.982   0.000   0.000   4.009    -0.009
  C              30     1.042   2.945   0.000   0.000   3.986     0.014
  C              31     1.023   2.984   0.000   0.000   4.007    -0.007
  C              32     1.036   2.943   0.000   0.000   3.979     0.021
==========================================================================
 
                 Bond                   Population      Length (A)
======================================================================
               H 2 -- C 21                   0.76        1.13025
               H 1 -- C 11                   0.76        1.13050
              C 13 -- C 22                   1.26        1.38188
              C 31 -- C 32                   1.14        1.40609
              C 29 -- C 30                   1.15        1.40622
              C 1  -- C 12                   1.14        1.40685
              C 9  -- C 20                   1.15        1.40691
              C 23 -- C 32                   1.13        1.41030
              C 3  -- C 12                   1.13        1.41088
              C 15 -- C 24                   1.11        1.41655
              C 5  -- C 14                   1.11        1.41695
              C 19 -- C 30                   1.11        1.41828
              C 19 -- C 20                   1.10        1.41850
              C 2  -- C 25                   1.09        1.42108
              C 4  -- C 25                   1.08        1.42126
              C 6  -- C 27                   1.08        1.42168
              C 25 -- C 26                   1.08        1.42169
              C 7  -- C 10                   1.08        1.42206
              C 17 -- C 18                   1.08        1.42279
              C 2  -- C 31                   1.06        1.42304
              C 27 -- C 28                   1.08        1.42308
              C 23 -- C 26                   1.06        1.42330
              C 17 -- C 28                   1.08        1.42375
              C 7  -- C 8                    1.08        1.42418
              C 4  -- C 27                   1.07        1.42432
              C 1  -- C 2                    1.05        1.42490
              C 17 -- C 26                   1.07        1.42529
              C 3  -- C 4                    1.06        1.42546
              C 15 -- C 18                   1.05        1.42798
              C 6  -- C 29                   1.05        1.42972
              C 5  -- C 6                    1.05        1.43042
              C 7  -- C 16                   1.06        1.43085
              C 5  -- C 16                   1.05        1.43088
              C 15 -- C 16                   1.05        1.43096
              C 9  -- C 18                   1.05        1.43102
              C 23 -- C 24                   1.05        1.43105
              C 3  -- C 14                   1.05        1.43156
              C 8  -- C 31                   1.04        1.43338
              C 1  -- C 10                   1.04        1.43494
              C 19 -- C 28                   1.03        1.43543
              C 8  -- C 29                   1.03        1.43729
              C 9  -- C 10                   1.03        1.43856
              C 13 -- C 24                   0.99        1.44601
              C 13 -- C 14                   0.99        1.44646
              C 21 -- C 22                   0.85        1.49269
              C 11 -- C 22                   0.85        1.49286
              C 21 -- C 32                   0.83        1.49900
              C 11 -- C 12                   0.83        1.49981
              C 21 -- C 30                   0.81        1.51274
              C 11 -- C 20                   0.81        1.51325
               H 2 -- C 30                  -0.17        2.08132
               H 1 -- C 20                  -0.17        2.08221
               H 1 -- C 22                  -0.17        2.08465
               H 2 -- C 32                  -0.17        2.08476
               H 2 -- C 22                  -0.17        2.08517
               H 1 -- C 12                  -0.17        2.08589
              C 2  -- C 32                  -0.18        2.43820
              C 2  -- C 12                  -0.18        2.44069
              C 26 -- C 32                  -0.18        2.44735
              C 4  -- C 12                  -0.18        2.45004
              C 6  -- C 30                  -0.18        2.45093
              C 18 -- C 20                  -0.18        2.45374
              C 22 -- C 24                  -0.19        2.45626
              C 14 -- C 22                  -0.19        2.45678
              C 23 -- C 31                  -0.17        2.45688
              C 1  -- C 3                   -0.17        2.45805
              C 4  -- C 26                  -0.18        2.45852
              C 3  -- C 25                  -0.18        2.45869
              C 23 -- C 25                  -0.18        2.45888
              C 18 -- C 24                  -0.18        2.46009
              C 20 -- C 28                  -0.18        2.46060
              C 28 -- C 30                  -0.18        2.46090
              C 19 -- C 29                  -0.17        2.46134
              C 4  -- C 28                  -0.18        2.46146
              C 1  -- C 31                  -0.18        2.46152
              C 9  -- C 19                  -0.17        2.46214
              C 2  -- C 26                  -0.18        2.46214
              C 6  -- C 14                  -0.18        2.46307
              C 26 -- C 28                  -0.18        2.46442
              C 2  -- C 4                   -0.18        2.46445
              C 8  -- C 10                  -0.18        2.46454
              C 25 -- C 31                  -0.18        2.46474
              C 1  -- C 25                  -0.18        2.46478
              C 6  -- C 28                  -0.18        2.46499
              C 18 -- C 26                  -0.18        2.46667
              C 17 -- C 23                  -0.18        2.46673
              C 4  -- C 6                   -0.18        2.46687
              C 3  -- C 27                  -0.18        2.46703
              C 18 -- C 28                  -0.18        2.46705
              C 24 -- C 26                  -0.18        2.46737
              C 17 -- C 27                  -0.18        2.46789
              C 27 -- C 29                  -0.18        2.46813
              C 9  -- C 17                  -0.18        2.46836
              C 17 -- C 25                  -0.18        2.46846
              C 8  -- C 32                  -0.19        2.46904
              C 25 -- C 27                  -0.17        2.46964
              C 4  -- C 14                  -0.18        2.46973
              C 5  -- C 27                  -0.18        2.46976
              C 8  -- C 30                  -0.19        2.46978
              C 15 -- C 17                  -0.17        2.46989
              C 10 -- C 16                  -0.18        2.47033
              C 15 -- C 23                  -0.17        2.47084
              C 14 -- C 16                  -0.18        2.47099
              C 3  -- C 5                   -0.17        2.47105
              C 16 -- C 24                  -0.18        2.47132
              C 24 -- C 32                  -0.18        2.47145
              C 10 -- C 12                  -0.18        2.47172
              C 12 -- C 14                  -0.18        2.47204
              C 10 -- C 20                  -0.19        2.47215
              C 1  -- C 7                   -0.18        2.47264
              C 19 -- C 27                  -0.18        2.47276
              C 7  -- C 31                  -0.18        2.47307
              C 8  -- C 16                  -0.18        2.47321
              C 16 -- C 18                  -0.18        2.47347
              C 17 -- C 19                  -0.18        2.47407
              C 5  -- C 15                  -0.18        2.47428
              C 2  -- C 8                   -0.17        2.47539
              C 6  -- C 16                  -0.18        2.47559
              C 20 -- C 30                  -0.19        2.47705
              C 9  -- C 15                  -0.18        2.47719
              C 2  -- C 10                  -0.17        2.47747
              C 5  -- C 29                  -0.18        2.47760
              C 7  -- C 29                  -0.17        2.47799
              C 7  -- C 9                   -0.17        2.47866
              C 5  -- C 7                   -0.17        2.47995
              C 6  -- C 8                   -0.17        2.48062
              C 7  -- C 15                  -0.17        2.48090
              C 10 -- C 18                  -0.18        2.48107
              C 13 -- C 15                  -0.17        2.48201
              C 5  -- C 13                  -0.17        2.48302
              C 13 -- C 23                  -0.17        2.48377
              C 3  -- C 13                  -0.17        2.48493
              C 29 -- C 31                  -0.17        2.48625
              C 1  -- C 9                   -0.17        2.48726
              C 14 -- C 24                  -0.17        2.48917
              C 21 -- C 31                  -0.18        2.49589
              C 1  -- C 11                  -0.17        2.49757
              C 11 -- C 13                  -0.16        2.50727
              C 13 -- C 21                  -0.16        2.50735
              C 21 -- C 29                  -0.17        2.50850
              C 9  -- C 11                  -0.17        2.51003
              C 22 -- C 32                  -0.14        2.51040
              C 12 -- C 22                  -0.14        2.51168
              C 21 -- C 23                  -0.17        2.51417
              C 3  -- C 11                  -0.17        2.51514
              C 11 -- C 21                  -0.17        2.52773
              C 30 -- C 32                  -0.14        2.53014
              C 12 -- C 20                  -0.14        2.53090
              C 22 -- C 30                  -0.15        2.53579
              C 20 -- C 22                  -0.15        2.53647
              C 19 -- C 21                  -0.16        2.53803
              C 11 -- C 19                  -0.16        2.53827
               H 1 -- H 2                    0.00        2.66921
              C 12 -- C 25                  -0.11        2.81934
              C 25 -- C 32                  -0.11        2.81945
               H 1 -- C 21                  -0.03        2.83248
               H 2 -- C 11                  -0.03        2.83313
              C 27 -- C 30                  -0.11        2.83340
              C 17 -- C 20                  -0.11        2.83425
              C 2  -- C 23                  -0.11        2.83614
              C 2  -- C 3                   -0.11        2.83852
              C 4  -- C 17                  -0.10        2.84386
              C 17 -- C 24                  -0.10        2.84467
              C 14 -- C 27                  -0.10        2.84543
              C 26 -- C 31                  -0.10        2.84699
              C 26 -- C 27                  -0.10        2.84732
              C 25 -- C 28                  -0.10        2.84799
              C 9  -- C 28                  -0.10        2.84820
              C 28 -- C 29                  -0.10        2.84844
              C 18 -- C 23                  -0.10        2.84869
              C 1  -- C 4                   -0.10        2.84964
              C 1  -- C 8                   -0.10        2.85004
              C 6  -- C 19                  -0.10        2.85016
              C 10 -- C 31                  -0.10        2.85025
              C 3  -- C 6                   -0.10        2.85046
              C 15 -- C 26                  -0.10        2.85172
              C 4  -- C 5                   -0.10        2.85261
              C 18 -- C 19                  -0.10        2.85353
              C 22 -- C 23                  -0.09        2.85520
              C 3  -- C 22                  -0.09        2.85666
              C 2  -- C 7                   -0.10        2.85704
              C 14 -- C 15                  -0.10        2.85720
              C 5  -- C 24                  -0.09        2.85807
              C 9  -- C 16                  -0.10        2.85836
              C 16 -- C 29                  -0.10        2.85922
              C 6  -- C 7                   -0.09        2.86049
              C 7  -- C 18                  -0.09        2.86074
              C 10 -- C 15                  -0.09        2.86108
              C 5  -- C 8                   -0.09        2.86239
              C 13 -- C 32                  -0.09        2.86541
              C 12 -- C 13                  -0.09        2.86637
              C 13 -- C 16                  -0.09        2.86942
              C 8  -- C 21                  -0.08        2.86951
              C 10 -- C 11                  -0.08        2.87315
              C 30 -- C 31                  -0.08        2.87458
              C 1  -- C 20                  -0.08        2.87562
              C 29 -- C 32                  -0.08        2.87608
              C 9  -- C 12                  -0.08        2.87730
               H 2 -- C 31                  -0.03        2.87992
               H 1 -- C 1                   -0.03        2.88265
               H 2 -- C 29                  -0.03        2.89117
               H 1 -- C 9                   -0.03        2.89371
              C 21 -- C 24                  -0.08        2.89774
              C 11 -- C 14                  -0.08        2.89790
              C 19 -- C 22                  -0.07        2.90216
              C 11 -- C 30                  -0.07        2.92395
              C 20 -- C 21                  -0.07        2.92429
               H 2 -- C 23                  -0.02        2.96607
               H 1 -- C 3                   -0.02        2.96709
               H 2 -- C 19                  -0.02        2.97265
               H 1 -- C 19                  -0.02        2.97327
               H 1 -- C 13                  -0.02        2.98902
               H 2 -- C 13                  -0.02        2.98990
======================================================================
 

Writing analysis data to 4x4.castep_bin

Writing model to 4x4.check
 
 A BibTeX formatted list of references used in this run has been written to 
 4x4.bib
 
Initialisation time =      3.09 s
Calculation time    =   3582.25 s
Finalisation time   =      2.04 s
Total time          =   3587.37 s
Peak Memory Use     = 1028652 kB
  
Overall parallel efficiency rating: Mediocre (52%)                              
  
Data was distributed by:-
G-vector (16-way); efficiency rating: Mediocre (53%)                            
k-point (8-way); efficiency rating: Excellent (98%)                             
