 +-------------------------------------------------+
 |                                                 |
 |      CCC   AA    SSS  TTTTT  EEEEE  PPPP        |
 |     C     A  A  S       T    E      P   P       |
 |     C     AAAA   SS     T    EEE    PPPP        |
 |     C     A  A     S    T    E      P           |
 |      CCC  A  A  SSS     T    EEEEE  P           |
 |                                                 |
 +-------------------------------------------------+
 |                                                 |
 | Welcome to Academic Release CASTEP version 21.11|          
 | Ab Initio Total Energy Program                  |
 |                                                 |
 | Authors:                                        |
 | M. Segall, M. Probert, C. Pickard, P. Hasnip,   |
 | S. Clark, K. Refson, J. R. Yates, M. Payne      |
 |                                                 |
 | Contributors:                                   |
 | P. Lindan, P. Haynes, J. White, V. Milman,      |
 | N. Govind, M. Gibson, P. Tulip, V. Cocula,      |
 | B. Montanari, D. Quigley, M. Glover,            |
 | L. Bernasconi, A. Perlov, M. Plummer,           |
 | E. McNellis, J. Meyer, J. Gale, D. Jochym       |
 | J. Aarons, B. Walker, R. Gillen, D. Jones       |
 | T. Green, I. J. Bush, C. J. Armstrong,          |
 | E. J. Higgins, E. L. Brown, M. S. McFly,        |
 | J. Wilkins, B-C. Shih, P. J. P. Byrne,          |
 | R. J. Maurer, J. C. Womack, J. Dziedzic,        |
 | A. Bartok-Partay, L. LeBlanc                    |
 |                                                 |
 | Copyright (c) 2000 - 2021                       |
 |                                                 |
 |     Distributed under license from Cambridge    |
 |     Enterprise for academic use only.           |
 |                                                 |
 | Please cite                                     |
 |                                                 |
 |     "First principles methods using CASTEP"     |
 |                                                 |
 |         Zeitschrift fuer Kristallographie       |
 |           220(5-6) pp. 567-570 (2005)           |
 |                                                 |
 | S. J. Clark, M. D. Segall, C. J. Pickard,       |
 | P. J. Hasnip, M. J. Probert, K. Refson,         |
 | M. C. Payne                                     |
 |                                                 |
 |       in all publications arising from          |
 |              your use of CASTEP                 |
 |                                                 |
 +-------------------------------------------------+
 |                                                 |
 |              http://www.castep.org              |
 |                                                 |
 +-------------------------------------------------+
 
 
 
 Compiled for linux_x86_64_cray-XT on Tue, 01 Mar 2022 09:19:15 +0000
 from code version 7d4405a8a+  HEAD  Sat Nov 27 13:38:33 2021 +0000
 Compiler: Cray Fortran 12.0.3; Optimisation: fast
 MATHLIBS: LibSci (LAPACK version 3.6.1)
 FFT Lib : fftw3 version commercial-fftw-3.3.8-sse2-avx-avx2-avx2_128
 Fundamental constants values: CODATA 2014
 
 Run started: Thu, 27 Oct 2022 12:23:59 -0100
 
 Atomic calculation performed for H: 1s1
 
 Converged in 41 iterations to an ae energy of -12.488 eV
 
   ============================================================                
   | Pseudopotential Report - Date of generation 27-10-2022   |                
   ------------------------------------------------------------                
   | Element: H Ionic charge:  1.00 Level of theory: PBE      |                
   | Atomic Solver: Koelling-Harmon                           |                
   |                                                          |                
   |               Reference Electronic Structure             |                
   |         Orbital         Occupation         Energy        |                
   |            1s              1.000           -0.239        |                
   |                                                          |                
   |                 Pseudopotential Definition               |                
   |        Beta     l      e      Rc     scheme   norm       |                
   |          1      0   -0.239   0.599     qc      0         |                
   |          2      0    0.250   0.599     qc      0         |                
   |         loc     1    0.000   0.599     pn      0         |                
   |                                                          |                
   | Augmentation charge Rinner = 0.421                       |                
   | No partial core correction                               |                
   ------------------------------------------------------------                
   | "1|0.6|13|15|17|10(qc=8)"                                |                
   ------------------------------------------------------------                
   |      Author: Chris J. Pickard, Cambridge University      |                
   ============================================================                
 
 Atomic calculation performed for C: 1s2 2s2 2p2
 
 Converged in 54 iterations to an ae energy of -1027.632 eV
 
   ============================================================                
   | Pseudopotential Report - Date of generation 27-10-2022   |                
   ------------------------------------------------------------                
   | Element: C Ionic charge:  4.00 Level of theory: PBE      |                
   | Atomic Solver: Koelling-Harmon                           |                
   |                                                          |                
   |               Reference Electronic Structure             |                
   |         Orbital         Occupation         Energy        |                
   |            2s              2.000           -0.505        |                
   |            2p              2.000           -0.194        |                
   |                                                          |                
   |                 Pseudopotential Definition               |                
   |        Beta     l      e      Rc     scheme   norm       |                
   |          1      0   -0.505   1.201     qc      1         |                
   |         loc     1   -0.194   1.201     qc      1         |                
   |                                                          |                
   | No charge augmentation                                   |                
   | Partial core correction Rc = 0.839                       |                
   ------------------------------------------------------------                
   | "1|1.2|17|20|23|20N:21L(qc=8)"                           |                
   ------------------------------------------------------------                
   |      Author: Chris J. Pickard, Cambridge University      |                
   ============================================================                
 
 Pseudo atomic calculation performed for H 1s1
 
 Converged in 13 iterations to a total energy of -12.4856 eV
 
 Pseudo atomic calculation performed for C 2s2 2p2
 
 Converged in 18 iterations to a total energy of -152.4291 eV
 Calculation parallelised over 128 processes.
 Data is distributed by G-vector(16-way) and k-point(8-way)

 ************************************ Title ************************************
 

 ***************************** General Parameters ******************************
  
 output verbosity                               : normal  (1)
 write checkpoint data to                       : 4x4.check
 type of calculation                            : geometry optimization
 stress calculation                             : off
 density difference calculation                 : off
 electron localisation func (ELF) calculation   : off
 Hirshfeld analysis                             : off
 polarisation (Berry phase) analysis            : off
 molecular orbital projected DOS                : off
 deltaSCF calculation                           : off
 unlimited duration calculation
 timing information                             : on
 memory usage estimate                          : on
 write extra output files                       : on
 write final potential to formatted file        : off
 write final density to formatted file          : off
 write structure in CELL formatted file         : on
 write BibTeX reference list                    : on
 write OTFG pseudopotential files               : on
 write electrostatic potential file             : on
 write bands file                               : on
 checkpoint writing                             : both castep_bin and check files
  
 output         length unit                     : A
 output           mass unit                     : amu
 output           time unit                     : ps
 output         charge unit                     : e
 output           spin unit                     : hbar/2
 output         energy unit                     : eV
 output          force unit                     : eV/A
 output       velocity unit                     : A/ps
 output       pressure unit                     : GPa
 output     inv_length unit                     : 1/A
 output      frequency unit                     : cm-1
 output force constant unit                     : eV/A**2
 output         volume unit                     : A**3
 output   IR intensity unit                     : (D/A)**2/amu
 output         dipole unit                     : D
 output         efield unit                     : eV/A/e
 output        entropy unit                     : J/mol/K
 output    efield chi2 unit                     : pm/V
  
 wavefunctions paging                           : none
 random number generator seed                   : randomised (122359604)
 data distribution                              : optimal for this architecture
 optimization strategy                          : maximize speed(+++)

 *********************** Exchange-Correlation Parameters ***********************
  
 using functional                               : Perdew Burke Ernzerhof
 relativistic treatment                         : Koelling-Harmon
 DFT+D: Semi-empirical dispersion correction    : on
 SEDC with                                      : MBD@rsSCS method

 ************************* Pseudopotential Parameters **************************
  
 pseudopotential representation                 : reciprocal space
 <beta|phi> representation                      : reciprocal space
 spin-orbit coupling                            : off

 **************************** Basis Set Parameters *****************************
  
 plane wave basis set cut-off                   :   800.0000   eV
 size of standard grid                          :     1.7500
 size of   fine   gmax                          :    25.3584   1/A
 finite basis set correction                    : none

 **************************** Electronic Parameters ****************************
  
 number of  electrons                           :  130.0    
 net charge of system                           :  0.000    
 treating system as non-spin-polarized
 number of bands                                :         98

 ********************* Electronic Minimization Parameters **********************
  
 Method: Treating system as metallic with density mixing treatment of electrons,
         and number of  SD  steps               :          1
         and number of  CG  steps               :          4
  
 total energy / atom convergence tol.           : 0.1000E-05   eV
 eigen-energy convergence tolerance             : 0.3469E-06   eV
 max force / atom convergence tol.              : ignored
 convergence tolerance window                   :          3   cycles
 max. number of SCF cycles                      :        100
 number of fixed-spin iterations                :         10
 smearing scheme                                : Gaussian
 smearing width                                 : 0.2000       eV
 Fermi energy convergence tolerance             : 0.2721E-13   eV
 periodic dipole correction                     : NONE

 ************************** Density Mixing Parameters **************************
  
 density-mixing scheme                          : Pulay
 max. length of mixing history                  :         20
 charge density mixing amplitude                : 0.8000    
 cut-off energy for mixing                      :  800.0       eV

 *********************** Population Analysis Parameters ************************
  
 Population analysis with cutoff                :  3.000       A
 Population analysis output                     : summary and pdos components

 ********************** Geometry Optimization Parameters ***********************
  
 optimization method                            : LBFGS
 max. no. of LBFGS updates                      : unbounded
 variable cell method                           : fixed basis quality
 max. number of steps                           :        100
 estimated bulk modulus                         :  500.0       GPa
 estimated <frequency>                          :  1668.       cm-1
 geom line minimiser                            : on
 with line minimiser tolerance                  :     0.4000
 total energy convergence tolerance             : 0.2000E-04   eV/atom
        max ionic |force| tolerance             : 0.1000E-01   eV/A
 max ionic |displacement| tolerance             : 0.1000E-02   A
   max |stress component| tolerance             : 0.1000       GPa
 convergence tolerance window                   :          2   steps
 backup results every                           :          5   steps
 write geom trajectory file                     : on

 *******************************************************************************
  
 
                           -------------------------------
                                      Unit Cell
                           -------------------------------
        Real Lattice(A)                      Reciprocal Lattice(1/A)
     9.8800000     0.0000000     0.0000000        0.635949930   0.367165863   0.000000000
    -4.9400000     8.5563310     0.0000000        0.000000000   0.734331726   0.000000000
     0.0000000     0.0000000    20.0339000        0.000000000   0.000000000   0.313627666
 
                       Lattice parameters(A)       Cell Angles
                    a =      9.880000          alpha =   90.000000
                    b =      9.880000          beta  =   90.000000
                    c =     20.033900          gamma =  120.000000
 
                       Current cell volume =          1693.596795       A**3
                                   density =             0.228129   AMU/A**3
                                           =             0.378817     g/cm^3
 
                           -------------------------------
                                     Cell Contents
                           -------------------------------
                         Total number of ions in cell =   34
                      Total number of species in cell =    2
                        Max number of any one species =   32
 
            xxxxxxxxxxxxxxxxxxxxxxxxxxxxxxxxxxxxxxxxxxxxxxxxxxxxxxxxxxxx
            x  Element    Atom        Fractional coordinates of atoms  x
            x            Number           u          v          w      x
            x----------------------------------------------------------x
            x  H            1         0.416198   0.329685   0.546391   x 
            x  H            2         0.501069   0.508725   0.550238   x 
            x  C            1         0.166476   0.083155   0.500002   x 
            x  C            2        -0.000100  -0.000140   0.500002   x 
            x  C            3         0.166447   0.333239   0.500002   x 
            x  C            4        -0.000173   0.249815   0.500002   x 
            x  C            5         0.166520   0.583404   0.500002   x 
            x  C            6        -0.000108   0.499946   0.500002   x 
            x  C            7         0.166543   0.833430   0.500002   x 
            x  C            8        -0.000049   0.750064   0.500002   x 
            x  C            9         0.416557   0.083155   0.500002   x 
            x  C           10         0.249870  -0.000199   0.500002   x 
            x  C           11         0.416592   0.333285   0.500002   x 
            x  C           12         0.249853   0.249827   0.500002   x 
            x  C           13         0.416666   0.583474   0.500002   x 
            x  C           14         0.249889   0.499981   0.500002   x 
            x  C           15         0.416657   0.833476   0.500002   x 
            x  C           16         0.249960   0.750123   0.500002   x 
            x  C           17         0.666714   0.083225   0.500002   x 
            x  C           18         0.500005  -0.000152   0.500002   x 
            x  C           19         0.666769   0.333356   0.500002   x 
            x  C           20         0.500012   0.249862   0.500002   x 
            x  C           21         0.666815   0.583509   0.500002   x 
            x  C           22         0.500066   0.500051   0.500002   x 
            x  C           23         0.666788   0.833535   0.500002   x 
            x  C           24         0.500117   0.750193   0.500002   x 
            x  C           25         0.916717   0.083272   0.500002   x 
            x  C           26         0.750125  -0.000093   0.500002   x 
            x  C           27         0.916770   0.333379   0.500002   x 
            x  C           28         0.750152   0.249920   0.500002   x 
            x  C           29         0.916836   0.583509   0.500002   x 
            x  C           30         0.750215   0.500086   0.500002   x 
            x  C           31         0.916769   0.833476   0.500002   x 
            x  C           32         0.750202   0.750181   0.500002   x 
            xxxxxxxxxxxxxxxxxxxxxxxxxxxxxxxxxxxxxxxxxxxxxxxxxxxxxxxxxxxx
 
 
                         No user defined ionic velocities
 
                           -------------------------------
                                   Details of Species
                           -------------------------------
 
                               Mass of species in AMU
                                    H    1.0079400
                                    C   12.0107000
 
                          Electric Quadrupole Moment (Barn)
                                    H    0.0028600 Isotope  2
                                    C    0.0332700 Isotope 11
 
                          Files used for pseudopotentials:
                                    H 1|0.6|13|15|17|10(qc=8)
                                    C 1|1.2|17|20|23|20N:21L(qc=8)
 
                           -------------------------------
                              k-Points For BZ Sampling
                           -------------------------------
                       MP grid size for SCF calculation is  4  4  1
                            with an offset of   0.000  0.000  0.000
                       Number of kpoints used =   8
 
                           -------------------------------
                               Symmetry and Constraints
                           -------------------------------
 
                      Maximum deviation from symmetry =  0.00000         ANG
 
                      Number of symmetry operations   = 1
         There are no ionic constraints specified or generated for this cell
                      Point group of crystal =     1: C1, 1, 1
                      Space group of crystal =     1: P1, P 1
 
             Set iprint > 1 for details on symmetry rotations/translations
 
                         Centre of mass is NOT constrained
 
                         Number of cell constraints= 6
                         Cell constraints are:  0 0 0 0 0 0
 
                         External pressure/stress (GPa)
                          0.00000   0.00000   0.00000
                                    0.00000   0.00000
                                              0.00000
 
                                --------------------
                                  DFT-D parameters
                                --------------------
 
                          Dispersion-correction scheme : MBD*      
                        Parameter sR :   0.830000 (default)
 
        xxxxxxxxxxxxxxxxxxxxxxxxxxxxxxxxxxxxxxxxxxxxxxxxxxxxxxxxxxxxxxxxxxxx
        x              Atomic DFT-D parameters                             x
        x  Species      C6            alpha        R0                      x
        x               eV A^6        A^3          A                       x
        x------------------------------------------------------------------x
        x  H             3.8839       0.6668       1.6404   (default)      x
        x  C            27.8448       1.7782       1.8997   (default)      x
        xxxxxxxxxxxxxxxxxxxxxxxxxxxxxxxxxxxxxxxxxxxxxxxxxxxxxxxxxxxxxxxxxxxx
 
  
+---------------- MEMORY AND SCRATCH DISK ESTIMATES PER PROCESS --------------+
|                                                     Memory          Disk    |
| Baseline code, static data and system overhead      770.0 MB         0.0 MB |
| BLAS internal memory storage                          0.0 MB         0.0 MB |
| Model and support data                               37.8 MB         0.0 MB |
| Electronic energy minimisation requirements          62.0 MB         0.0 MB |
| Force calculation requirements                       12.6 MB         0.0 MB |
|                                               ----------------------------- |
| Approx. total storage required per process          869.7 MB         0.0 MB |
|                                                                             |
| Requirements will fluctuate during execution and may exceed these estimates |
+-----------------------------------------------------------------------------+
Calculating approximate eigenstates for fixed initial Hamiltonian
Cut-off for approx. calculation is  119.774 eV
Improving approx. states at cut-off of  462.594 eV
Resetting cut-off to  800.000 eV
Calculating total energy with cut-off of  800.000 eV.
------------------------------------------------------------------------ <-- SCF
SCF loop      Energy           Fermi           Energy gain       Timer   <-- SCF
                               energy          per atom          (sec)   <-- SCF
------------------------------------------------------------------------ <-- SCF
Initial  -4.73135716E+003  0.00000000E+000                        10.51  <-- SCF
      1  -5.21332847E+003 -5.33412481E+000   1.41756268E+001      16.15  <-- SCF
      2  -5.21355593E+003 -5.33554758E+000   6.68981501E-003      21.98  <-- SCF
      3  -5.19946808E+003 -3.94156859E+000  -4.14348450E-001      28.29  <-- SCF
      4  -5.19863319E+003 -3.43370660E+000  -2.45554848E-002      34.64  <-- SCF
      5  -5.19839724E+003 -3.16069952E+000  -6.93968801E-003      41.28  <-- SCF
      6  -5.19827362E+003 -2.93526639E+000  -3.63609245E-003      47.74  <-- SCF
      7  -5.19821836E+003 -2.75864608E+000  -1.62510701E-003      54.12  <-- SCF
      8  -5.19813613E+003 -2.53780407E+000  -2.41847886E-003      60.31  <-- SCF
      9  -5.19812548E+003 -2.38997239E+000  -3.13439213E-004      66.73  <-- SCF
     10  -5.19814057E+003 -2.27341614E+000   4.44047265E-004      72.79  <-- SCF
     11  -5.19815423E+003 -2.19214357E+000   4.01785629E-004      78.72  <-- SCF
     12  -5.19815601E+003 -2.10082718E+000   5.23374721E-005      84.38  <-- SCF
     13  -5.19815304E+003 -2.02291634E+000  -8.73592373E-005      89.89  <-- SCF
     14  -5.19814951E+003 -1.94102605E+000  -1.03813206E-004      95.20  <-- SCF
     15  -5.19815266E+003 -1.87137598E+000   9.24445882E-005     100.51  <-- SCF
     16  -5.19815966E+003 -1.84336810E+000   2.06011026E-004     105.62  <-- SCF
     17  -5.19816466E+003 -1.83681563E+000   1.47131755E-004     110.76  <-- SCF
     18  -5.19816572E+003 -1.83585691E+000   3.10214278E-005     115.74  <-- SCF
     19  -5.19816596E+003 -1.83580467E+000   7.19431020E-006     120.52  <-- SCF
     20  -5.19816600E+003 -1.83585769E+000   1.17650092E-006     125.54  <-- SCF
     21  -5.19816604E+003 -1.83568322E+000   1.15955756E-006     130.55  <-- SCF
     22  -5.19816607E+003 -1.83545048E+000   8.95391727E-007     135.58  <-- SCF
     23  -5.19816609E+003 -1.83535316E+000   5.79559798E-007     140.47  <-- SCF
     24  -5.19816612E+003 -1.83531202E+000   6.79565661E-007     145.47  <-- SCF
     25  -5.19816614E+003 -1.83517692E+000   6.90552748E-007     150.44  <-- SCF
     26  -5.19816615E+003 -1.83511168E+000   2.64189789E-007     155.48  <-- SCF
------------------------------------------------------------------------ <-- SCF
 
Final energy, E             =  -5198.151879477     eV
Final free energy (E-TS)    =  -5198.166148546     eV
(energies not corrected for finite basis set)
 
NB est. 0K energy (E-0.5TS)      =  -5198.159014012     eV
 
 WARNING: Your unit cell might be too small to get accurate results for van der Waals
(SEDC) Total Energy Correction : -0.280942E+01 eV

Dispersion corrected final energy*, Ecor          =  -5200.961301319     eV
Dispersion corrected final free energy* (Ecor-TS) =  -5200.975570389     eV
NB dispersion corrected est. 0K energy* (Ecor-0.5TS) =  -5200.968435854     eV

Writing analysis data to 4x4.castep_bin

Writing model to 4x4.check
 
+---------------- MEMORY AND SCRATCH DISK ESTIMATES PER PROCESS --------------+
|                                                     Memory          Disk    |
| Model and support data                               45.7 MB         0.0 MB |
| Electronic energy minimisation requirements          62.0 MB         0.0 MB |
| Geometry minimisation requirements                   71.3 MB         0.0 MB |
|                                               ----------------------------- |
| Approx. total storage required per process          179.0 MB         0.0 MB |
|                                                                             |
| Requirements will fluctuate during execution and may exceed these estimates |
+-----------------------------------------------------------------------------+
 
 
 ************************************** Forces **************************************
 *                                                                                  *
 *                           Cartesian components (eV/A)                            *
 * -------------------------------------------------------------------------------- *
 *                         x                    y                    z              *
 *                                                                                  *
 * H               1      0.06244             -1.16219              9.26729         *
 * H               2      0.03217              0.98973              4.62764         *
 * C               1     -0.18519              0.74035             -0.01901         *
 * C               2     -0.32926              0.10125              0.04952         *
 * C               3      0.56020             -1.12871             -0.01120         *
 * C               4      0.13744             -0.20744              0.06568         *
 * C               5      0.23193              0.21899              0.06994         *
 * C               6     -0.04424             -0.29368             -0.00496         *
 * C               7      0.02473              0.68047             -0.00607         *
 * C               8     -0.28877             -0.10136             -0.00603         *
 * C               9      0.25998              0.74805             -0.01945         *
 * C              10     -0.04550             -0.83357             -0.03293         *
 * C              11     -0.02824             -2.14986             -5.52365         *
 * C              12     -3.25019             -1.69301             -1.83162         *
 * C              13     -3.15948              1.69219             -1.95832         *
 * C              14      0.41741              1.11665             -0.03851         *
 * C              15     -0.27182             -0.09838              0.05678         *
 * C              16      0.20865             -0.10333             -0.00725         *
 * C              17     -0.21297              0.09291             -0.01021         *
 * C              18      0.27517              0.09627              0.05392         *
 * C              19     -0.46613             -1.13344             -0.00640         *
 * C              20      3.22634             -1.73807             -1.92983         *
 * C              21      3.12227              1.59216             -1.75243         *
 * C              22      0.01242              2.42317             -1.06104         *
 * C              23      0.05513              0.80175             -0.02408         *
 * C              24     -0.26397             -0.69963             -0.03329         *
 * C              25      0.28998              0.09067             -0.00916         *
 * C              26     -0.02168             -0.66109             -0.00255         *
 * C              27      0.04709              0.29627             -0.00583         *
 * C              28     -0.22039             -0.21677              0.06949         *
 * C              29     -0.15082              0.20740              0.06186         *
 * C              30     -0.52431              1.12345             -0.04286         *
 * C              31      0.32379             -0.10329              0.04863         *
 * C              32      0.17581             -0.68791             -0.03409         *
 *                                                                                  *
 ************************************************************************************
 LBFGS: finished iteration     0 with enthalpy= -5.20097557E+003 eV
  
 +-----------+-----------------+-----------------+------------+-----+ <-- LBFGS
 | Parameter |      value      |    tolerance    |    units   | OK? | <-- LBFGS
 +-----------+-----------------+-----------------+------------+-----+ <-- LBFGS
 |  dE/ion   |   0.000000E+000 |   2.000000E-005 |         eV | No  | <-- LBFGS
 |  |F|max   |   9.340087E+000 |   1.000000E-002 |       eV/A | No  | <-- LBFGS
 |  |dR|max  |   0.000000E+000 |   1.000000E-003 |          A | No  | <-- LBFGS
 +-----------+-----------------+-----------------+------------+-----+ <-- LBFGS
  

================================================================================
 Starting LBFGS iteration          1 ...
================================================================================
  
 +------------+-------------+-------------+-----------------+ <-- min LBFGS
 |    Step    |   lambda    |   F.delta'  |    enthalpy     | <-- min LBFGS
 +------------+-------------+-------------+-----------------+ <-- min LBFGS
 |  previous  |    0.000000 |    7.146934 |    -5200.975570 | <-- min LBFGS
 +------------+-------------+-------------+-----------------+ <-- min LBFGS
  

--------------------------------------------------------------------------------
 LBFGS: starting iteration         1 with trial guess (lambda=  1.000000)
--------------------------------------------------------------------------------
 
                           -------------------------------
                                     Cell Contents
                           -------------------------------
 
            xxxxxxxxxxxxxxxxxxxxxxxxxxxxxxxxxxxxxxxxxxxxxxxxxxxxxxxxxxxxxxxxx
            x  Element         Atom        Fractional coordinates of atoms  x
            x                 Number           u          v          w      x
            x---------------------------------------------------------------x
            x  H                 1         0.415668   0.328516   0.550370   x
            x  H                 2         0.501594   0.509720   0.552225   x
            x  C                 1         0.166687   0.083899   0.499994   x
            x  C                 2        -0.000336  -0.000038   0.500024   x
            x  C                 3         0.166368   0.332104   0.499998   x
            x  C                 4        -0.000158   0.249606   0.500031   x
            x  C                 5         0.166832   0.583624   0.500033   x
            x  C                 6        -0.000294   0.499650   0.500000   x
            x  C                 7         0.166906   0.834114   0.500000   x
            x  C                 8        -0.000351   0.749963   0.500000   x
            x  C                 9         0.417160   0.083907   0.499994   x
            x  C                10         0.249412  -0.001037   0.499988   x
            x  C                11         0.415487   0.331124   0.497631   x
            x  C                12         0.246171   0.248124   0.499216   x
            x  C                13         0.414766   0.585176   0.499162   x
            x  C                14         0.250814   0.501103   0.499986   x
            x  C                15         0.416371   0.833377   0.500027   x
            x  C                16         0.250090   0.750019   0.499999   x
            x  C                17         0.666575   0.083318   0.499998   x
            x  C                18         0.500293  -0.000055   0.500026   x
            x  C                19         0.665793   0.332216   0.500000   x
            x  C                20         0.501947   0.248114   0.499174   x
            x  C                21         0.670335   0.585110   0.499250   x
            x  C                22         0.501295   0.502487   0.499547   x
            x  C                23         0.667239   0.834341   0.499992   x
            x  C                24         0.499535   0.749490   0.499988   x
            x  C                25         0.917015   0.083363   0.499999   x
            x  C                26         0.749774  -0.000758   0.500001   x
            x  C                27         0.916960   0.333677   0.500000   x
            x  C                28         0.749852   0.249702   0.500032   x
            x  C                29         0.916809   0.583718   0.500029   x
            x  C                30         0.750323   0.501215   0.499984   x
            x  C                31         0.916999   0.833373   0.500023   x
            x  C                32         0.750009   0.749490   0.499988   x
            xxxxxxxxxxxxxxxxxxxxxxxxxxxxxxxxxxxxxxxxxxxxxxxxxxxxxxxxxxxxxxxxx
 
 
------------------------------------------------------------------------ <-- SCF
SCF loop      Energy           Fermi           Energy gain       Timer   <-- SCF
                               energy          per atom          (sec)   <-- SCF
------------------------------------------------------------------------ <-- SCF
Initial  -5.19052310E+003  0.00000000E+000                       161.67  <-- SCF
      1  -5.19939279E+003 -1.84317935E+000   2.60873249E-001     166.54  <-- SCF
      2  -5.19949064E+003 -1.84401618E+000   2.87798238E-003     173.61  <-- SCF
      3  -5.19937395E+003 -1.85784827E+000  -3.43198909E-003     179.70  <-- SCF
      4  -5.19937080E+003 -1.85965337E+000  -9.25447915E-005     185.56  <-- SCF
      5  -5.19937079E+003 -1.85836282E+000  -2.83669539E-007     191.73  <-- SCF
      6  -5.19937080E+003 -1.85810465E+000   2.70587510E-007     197.14  <-- SCF
------------------------------------------------------------------------ <-- SCF
 
Final energy, E             =  -5199.358827903     eV
Final free energy (E-TS)    =  -5199.370802935     eV
(energies not corrected for finite basis set)
 
NB est. 0K energy (E-0.5TS)      =  -5199.364815419     eV
 
(SEDC) Total Energy Correction : -0.281516E+01 eV

Dispersion corrected final energy*, Ecor          =  -5202.173990696     eV
Dispersion corrected final free energy* (Ecor-TS) =  -5202.185965728     eV
NB dispersion corrected est. 0K energy* (Ecor-0.5TS) =  -5202.179978212     eV
 
 ************************************** Forces **************************************
 *                                                                                  *
 *                           Cartesian components (eV/A)                            *
 * -------------------------------------------------------------------------------- *
 *                         x                    y                    z              *
 *                                                                                  *
 * H               1     -0.01361             -1.05465              2.32105         *
 * H               2      0.08606              0.76359              2.38518         *
 * C               1     -0.43577             -0.36844             -0.09547         *
 * C               2     -0.04803              0.03508              0.07980         *
 * C               3     -0.31230             -0.22792             -0.09083         *
 * C               4      0.05310             -0.07198              0.08812         *
 * C               5      0.02123              0.09050              0.07599         *
 * C               6     -0.00686             -0.08133              0.01406         *
 * C               7     -0.00839              0.14257              0.00186         *
 * C               8     -0.02996              0.06352             -0.00137         *
 * C               9      0.44935             -0.37229             -0.10112         *
 * C              10     -0.00858              0.07097             -0.04347         *
 * C              11      0.06471             -1.22208              1.21299         *
 * C              12     -1.11069             -0.82742             -1.60808         *
 * C              13     -1.28700              0.99599             -1.70554         *
 * C              14     -0.21639              0.23952             -0.14835         *
 * C              15     -0.06130             -0.01839              0.07011         *
 * C              16      0.01727              0.06572             -0.00194         *
 * C              17     -0.00994             -0.06924             -0.00714         *
 * C              18      0.05429              0.03285              0.08480         *
 * C              19      0.33257             -0.23085             -0.09458         *
 * C              20      1.10110             -0.84120             -1.67268         *
 * C              21      1.25607              0.95573             -1.54256         *
 * C              22     -0.07348              1.30654              0.95180         *
 * C              23      0.01302             -0.02253             -0.01387         *
 * C              24     -0.45771              0.29297             -0.12869         *
 * C              25      0.02247             -0.06598             -0.00631         *
 * C              26      0.00846             -0.16078             -0.00177         *
 * C              27      0.00736              0.08202              0.01373         *
 * C              28     -0.05678             -0.07776              0.08976         *
 * C              29     -0.02257              0.08480              0.06983         *
 * C              30      0.18662              0.23363             -0.13929         *
 * C              31      0.05096             -0.02511              0.06168         *
 * C              32      0.43474              0.28196             -0.11768         *
 *                                                                                  *
 ************************************************************************************
  
 +------------+-------------+-------------+-----------------+ <-- min LBFGS
 |    Step    |   lambda    |   F.delta'  |    enthalpy     | <-- min LBFGS
 +------------+-------------+-------------+-----------------+ <-- min LBFGS
 |  previous  |    0.000000 |    7.146934 |    -5200.975570 | <-- min LBFGS
 | trial step |    1.000000 |    2.068390 |    -5202.185966 | <-- min LBFGS
 +------------+-------------+-------------+-----------------+ <-- min LBFGS
  

--------------------------------------------------------------------------------
 LBFGS: improving iteration         1 with line minimization (lambda=  1.407280)
--------------------------------------------------------------------------------
 
                           -------------------------------
                                     Cell Contents
                           -------------------------------
 
            xxxxxxxxxxxxxxxxxxxxxxxxxxxxxxxxxxxxxxxxxxxxxxxxxxxxxxxxxxxxxxxxx
            x  Element         Atom        Fractional coordinates of atoms  x
            x                 Number           u          v          w      x
            x---------------------------------------------------------------x
            x  H                 1         0.415453   0.328040   0.551991   x
            x  H                 2         0.501809   0.510126   0.553034   x
            x  C                 1         0.166773   0.084202   0.499991   x
            x  C                 2        -0.000432   0.000003   0.500032   x
            x  C                 3         0.166335   0.331642   0.499996   x
            x  C                 4        -0.000152   0.249521   0.500042   x
            x  C                 5         0.166959   0.583714   0.500045   x
            x  C                 6        -0.000370   0.499530   0.499999   x
            x  C                 7         0.167054   0.834392   0.499999   x
            x  C                 8        -0.000474   0.749921   0.499999   x
            x  C                 9         0.417405   0.084213   0.499991   x
            x  C                10         0.249225  -0.001378   0.499983   x
            x  C                11         0.415036   0.330243   0.496664   x
            x  C                12         0.244672   0.247431   0.498896   x
            x  C                13         0.413992   0.585869   0.498819   x
            x  C                14         0.251191   0.501561   0.499979   x
            x  C                15         0.416255   0.833337   0.500037   x
            x  C                16         0.250143   0.749977   0.499998   x
            x  C                17         0.666518   0.083356   0.499996   x
            x  C                18         0.500410  -0.000016   0.500035   x
            x  C                19         0.665396   0.331752   0.499999   x
            x  C                20         0.502736   0.247402   0.498836   x
            x  C                21         0.671768   0.585762   0.498943   x
            x  C                22         0.501795   0.503479   0.499361   x
            x  C                23         0.667422   0.834669   0.499988   x
            x  C                24         0.499298   0.749203   0.499982   x
            x  C                25         0.917136   0.083400   0.499997   x
            x  C                26         0.749631  -0.001029   0.500001   x
            x  C                27         0.917038   0.333798   0.499999   x
            x  C                28         0.749729   0.249613   0.500044   x
            x  C                29         0.916798   0.583803   0.500040   x
            x  C                30         0.750367   0.501675   0.499977   x
            x  C                31         0.917092   0.833330   0.500032   x
            x  C                32         0.749931   0.749208   0.499982   x
            xxxxxxxxxxxxxxxxxxxxxxxxxxxxxxxxxxxxxxxxxxxxxxxxxxxxxxxxxxxxxxxxx
 
 
------------------------------------------------------------------------ <-- SCF
SCF loop      Energy           Fermi           Energy gain       Timer   <-- SCF
                               energy          per atom          (sec)   <-- SCF
------------------------------------------------------------------------ <-- SCF
Initial  -5.19738547E+003  0.00000000E+000                       201.51  <-- SCF
      1  -5.19951792E+003 -1.86825169E+000   6.27190038E-002     206.29  <-- SCF
      2  -5.19952661E+003 -1.86841170E+000   2.55611886E-004     213.66  <-- SCF
      3  -5.19951103E+003 -1.87098097E+000  -4.58195677E-004     219.81  <-- SCF
      4  -5.19951069E+003 -1.87216829E+000  -1.01223173E-005     225.71  <-- SCF
      5  -5.19951074E+003 -1.87146720E+000   1.52309296E-006     231.35  <-- SCF
      6  -5.19951074E+003 -1.87134123E+000   1.59665553E-007     236.40  <-- SCF
      7  -5.19951075E+003 -1.87122451E+000   2.14246750E-007     241.46  <-- SCF
------------------------------------------------------------------------ <-- SCF
 
Final energy, E             =  -5199.499675834     eV
Final free energy (E-TS)    =  -5199.510751052     eV
(energies not corrected for finite basis set)
 
NB est. 0K energy (E-0.5TS)      =  -5199.505213443     eV
 
(SEDC) Total Energy Correction : -0.281653E+01 eV

Dispersion corrected final energy*, Ecor          =  -5202.316210051     eV
Dispersion corrected final free energy* (Ecor-TS) =  -5202.327285269     eV
NB dispersion corrected est. 0K energy* (Ecor-0.5TS) =  -5202.321747660     eV
 
 ************************************** Forces **************************************
 *                                                                                  *
 *                           Cartesian components (eV/A)                            *
 * -------------------------------------------------------------------------------- *
 *                         x                    y                    z              *
 *                                                                                  *
 * H               1     -0.02759             -1.04415              0.66050         *
 * H               2      0.10175              0.69458              1.62929         *
 * C               1     -0.53489             -0.83483             -0.12394         *
 * C               2      0.06926              0.00724              0.09296         *
 * C               3     -0.68994              0.14603             -0.12024         *
 * C               4      0.01843             -0.01525              0.09769         *
 * C               5     -0.06376              0.03719              0.07954         *
 * C               6      0.00815              0.00555              0.02190         *
 * C               7     -0.02135             -0.08590              0.00517         *
 * C               8      0.07610              0.12925              0.00055         *
 * C               9      0.52419             -0.84467             -0.13162         *
 * C              10      0.00595              0.44525             -0.04898         *
 * C              11      0.08415             -0.82991              2.82254         *
 * C              12     -0.22983             -0.49114             -1.53632         *
 * C              13     -0.50887              0.71362             -1.60714         *
 * C              14     -0.50223             -0.12363             -0.18847         *
 * C              15      0.02536              0.01464              0.07685         *
 * C              16     -0.06120              0.13397              0.00021         *
 * C              17      0.07202             -0.13548             -0.00569         *
 * C              18     -0.03807              0.00689              0.09823         *
 * C              19      0.67628              0.14135             -0.12750         *
 * C              20      0.23132             -0.48995             -1.58844         *
 * C              21      0.47603              0.70077             -1.46100         *
 * C              22     -0.10084              0.86860              1.59397         *
 * C              23     -0.00354             -0.36912             -0.01035         *
 * C              24     -0.53542              0.71947             -0.16369         *
 * C              25     -0.08592             -0.12958             -0.00494         *
 * C              26      0.02015              0.05302             -0.00139         *
 * C              27     -0.00863             -0.00685              0.02216         *
 * C              28      0.01034             -0.01982              0.09853         *
 * C              29      0.02825              0.03391              0.07394         *
 * C              30      0.50741             -0.13582             -0.17415         *
 * C              31     -0.06163              0.00788              0.06818         *
 * C              32      0.53859              0.69687             -0.14835         *
 *                                                                                  *
 ************************************************************************************
  
 +------------+-------------+-------------+-----------------+ <-- min LBFGS
 |    Step    |   lambda    |   F.delta'  |    enthalpy     | <-- min LBFGS
 +------------+-------------+-------------+-----------------+ <-- min LBFGS
 |  previous  |    0.000000 |    7.146934 |    -5200.975570 | <-- min LBFGS
 | trial step |    1.000000 |    2.068390 |    -5202.185966 | <-- min LBFGS
 |  line step |    1.407280 |    0.557893 |    -5202.327285 | <-- min LBFGS
 +------------+-------------+-------------+-----------------+ <-- min LBFGS
  
 LBFGS: finished iteration     1 with enthalpy= -5.20232729E+003 eV
  
 +-----------+-----------------+-----------------+------------+-----+ <-- LBFGS
 | Parameter |      value      |    tolerance    |    units   | OK? | <-- LBFGS
 +-----------+-----------------+-----------------+------------+-----+ <-- LBFGS
 |  dE/ion   |   3.975632E-002 |   2.000000E-005 |         eV | No  | <-- LBFGS
 |  |F|max   |   2.943223E+000 |   1.000000E-002 |       eV/A | No  | <-- LBFGS
 |  |dR|max  |   1.130789E-001 |   1.000000E-003 |          A | No  | <-- LBFGS
 +-----------+-----------------+-----------------+------------+-----+ <-- LBFGS
  

================================================================================
 Starting LBFGS iteration          2 ...
================================================================================
  
 +------------+-------------+-------------+-----------------+ <-- min LBFGS
 |    Step    |   lambda    |   F.delta'  |    enthalpy     | <-- min LBFGS
 +------------+-------------+-------------+-----------------+ <-- min LBFGS
 |  previous  |    0.000000 |    2.413980 |    -5202.327285 | <-- min LBFGS
 +------------+-------------+-------------+-----------------+ <-- min LBFGS
  

--------------------------------------------------------------------------------
 LBFGS: starting iteration         2 with trial guess (lambda=  1.000000)
--------------------------------------------------------------------------------
 
                           -------------------------------
                                     Cell Contents
                           -------------------------------
 
            xxxxxxxxxxxxxxxxxxxxxxxxxxxxxxxxxxxxxxxxxxxxxxxxxxxxxxxxxxxxxxxxx
            x  Element         Atom        Fractional coordinates of atoms  x
            x                 Number           u          v          w      x
            x---------------------------------------------------------------x
            x  H                 1         0.414750   0.326665   0.553103   x
            x  H                 2         0.502390   0.511084   0.554195   x
            x  C                 1         0.165855   0.083442   0.499932   x
            x  C                 2        -0.000411   0.000031   0.500080   x
            x  C                 3         0.165747   0.331572   0.499939   x
            x  C                 4        -0.000140   0.249463   0.500093   x
            x  C                 5         0.166982   0.583799   0.500088   x
            x  C                 6        -0.000397   0.499476   0.500009   x
            x  C                 7         0.167061   0.834437   0.500001   x
            x  C                 8        -0.000393   0.750041   0.499999   x
            x  C                 9         0.417561   0.083444   0.499928   x
            x  C                10         0.249381  -0.001062   0.499957   x
            x  C                11         0.414440   0.328902   0.497500   x
            x  C                12         0.243444   0.246552   0.498021   x
            x  C                13         0.413517   0.586991   0.497901   x
            x  C                14         0.250836   0.501653   0.499888   x
            x  C                15         0.416229   0.833333   0.500078   x
            x  C                16         0.250184   0.750102   0.499998   x
            x  C                17         0.666485   0.083227   0.499993   x
            x  C                18         0.500436   0.000011   0.500086   x
            x  C                19         0.665914   0.331676   0.499939   x
            x  C                20         0.503078   0.246515   0.497929   x
            x  C                21         0.673311   0.586850   0.498111   x
            x  C                22         0.502422   0.504919   0.500012   x
            x  C                23         0.667309   0.834430   0.499981   x
            x  C                24         0.499067   0.749846   0.499903   x
            x  C                25         0.917045   0.083277   0.499994   x
            x  C                26         0.749608  -0.001105   0.500000   x
            x  C                27         0.917064   0.333851   0.500009   x
            x  C                28         0.749667   0.249548   0.500096   x
            x  C                29         0.916837   0.583882   0.500080   x
            x  C                30         0.750794   0.501756   0.499892   x
            x  C                31         0.917085   0.833318   0.500068   x
            x  C                32         0.750781   0.749828   0.499910   x
            xxxxxxxxxxxxxxxxxxxxxxxxxxxxxxxxxxxxxxxxxxxxxxxxxxxxxxxxxxxxxxxxx
 
 
------------------------------------------------------------------------ <-- SCF
SCF loop      Energy           Fermi           Energy gain       Timer   <-- SCF
                               energy          per atom          (sec)   <-- SCF
------------------------------------------------------------------------ <-- SCF
Initial  -5.19771278E+003  0.00000000E+000                       245.81  <-- SCF
      1  -5.19980433E+003 -1.90593632E+000   6.15161036E-002     250.45  <-- SCF
      2  -5.19981952E+003 -1.90631796E+000   4.46914800E-004     257.78  <-- SCF
      3  -5.19981059E+003 -1.90462661E+000  -2.62584028E-004     263.97  <-- SCF
      4  -5.19981071E+003 -1.90329738E+000   3.26689013E-006     270.01  <-- SCF
      5  -5.19981073E+003 -1.90287354E+000   7.01549843E-007     275.12  <-- SCF
      6  -5.19981073E+003 -1.90262874E+000   1.72276130E-007     280.17  <-- SCF
------------------------------------------------------------------------ <-- SCF
 
Final energy, E             =  -5199.799452751     eV
Final free energy (E-TS)    =  -5199.810734928     eV
(energies not corrected for finite basis set)
 
NB est. 0K energy (E-0.5TS)      =  -5199.805093840     eV
 
(SEDC) Total Energy Correction : -0.281585E+01 eV

Dispersion corrected final energy*, Ecor          =  -5202.615307617     eV
Dispersion corrected final free energy* (Ecor-TS) =  -5202.626589794     eV
NB dispersion corrected est. 0K energy* (Ecor-0.5TS) =  -5202.620948705     eV
 
 ************************************** Forces **************************************
 *                                                                                  *
 *                           Cartesian components (eV/A)                            *
 * -------------------------------------------------------------------------------- *
 *                         x                    y                    z              *
 *                                                                                  *
 * H               1     -0.03124             -1.00631              0.41542         *
 * H               2      0.10444              0.69079              1.19514         *
 * C               1     -0.30811             -0.57546             -0.22771         *
 * C               2     -0.08585             -0.18986              0.08329         *
 * C               3     -0.39048              0.15191             -0.20970         *
 * C               4     -0.19245             -0.05010              0.08341         *
 * C               5     -0.20302              0.04664              0.06444         *
 * C               6      0.00131              0.07915              0.04382         *
 * C               7     -0.01320              0.00241              0.02030         *
 * C               8      0.07870              0.08622              0.00861         *
 * C               9      0.30112             -0.58201             -0.23934         *
 * C              10      0.00479              0.19119             -0.02729         *
 * C              11      0.03845             -0.20195              2.84967         *
 * C              12     -0.00115             -0.23593             -1.25301         *
 * C              13     -0.08834              0.30020             -1.30401         *
 * C              14     -0.40421             -0.11929             -0.26612         *
 * C              15     -0.09980              0.19759              0.07106         *
 * C              16     -0.07947              0.09148              0.00909         *
 * C              17      0.07511             -0.08626              0.00626         *
 * C              18      0.10166             -0.18799              0.08950         *
 * C              19      0.38295              0.14097             -0.22044         *
 * C              20      0.03452             -0.24204             -1.29938         *
 * C              21      0.04129              0.29432             -1.18564         *
 * C              22     -0.06558              0.31311              1.76269         *
 * C              23     -0.00574             -0.20698              0.00192         *
 * C              24     -0.33264              0.61960             -0.26368         *
 * C              25     -0.07543             -0.07972              0.00682         *
 * C              26      0.01250             -0.00340              0.01500         *
 * C              27     -0.00407             -0.08268              0.04553         *
 * C              28      0.21189             -0.05330              0.08269         *
 * C              29      0.17562              0.04312              0.06080         *
 * C              30      0.40359             -0.13469             -0.24285         *
 * C              31      0.07824              0.19006              0.06295         *
 * C              32      0.33457              0.59922             -0.23923         *
 *                                                                                  *
 ************************************************************************************
  
 +------------+-------------+-------------+-----------------+ <-- min LBFGS
 |    Step    |   lambda    |   F.delta'  |    enthalpy     | <-- min LBFGS
 +------------+-------------+-------------+-----------------+ <-- min LBFGS
 |  previous  |    0.000000 |    2.413980 |    -5202.327285 | <-- min LBFGS
 | trial step |    1.000000 |    1.827240 |    -5202.626590 | <-- min LBFGS
 +------------+-------------+-------------+-----------------+ <-- min LBFGS
  

--------------------------------------------------------------------------------
 LBFGS: improving iteration         2 with line minimization (lambda=  4.114221)
--------------------------------------------------------------------------------
 
                           -------------------------------
                                     Cell Contents
                           -------------------------------
 
            xxxxxxxxxxxxxxxxxxxxxxxxxxxxxxxxxxxxxxxxxxxxxxxxxxxxxxxxxxxxxxxxx
            x  Element         Atom        Fractional coordinates of atoms  x
            x                 Number           u          v          w      x
            x---------------------------------------------------------------x
            x  H                 1         0.412562   0.322384   0.556564   x
            x  H                 2         0.504199   0.514069   0.557808   x
            x  C                 1         0.162997   0.081075   0.499747   x
            x  C                 2        -0.000343   0.000120   0.500228   x
            x  C                 3         0.163916   0.331354   0.499761   x
            x  C                 4        -0.000102   0.249280   0.500253   x
            x  C                 5         0.167054   0.584064   0.500222   x
            x  C                 6        -0.000481   0.499310   0.500040   x
            x  C                 7         0.167081   0.834576   0.500007   x
            x  C                 8        -0.000140   0.750416   0.499998   x
            x  C                 9         0.418048   0.081048   0.499732   x
            x  C                10         0.249866  -0.000077   0.499877   x
            x  C                11         0.412583   0.324723   0.500102   x
            x  C                12         0.239618   0.243813   0.495298   x
            x  C                13         0.412036   0.590485   0.495040   x
            x  C                14         0.249730   0.501939   0.499604   x
            x  C                15         0.416148   0.833321   0.500204   x
            x  C                16         0.250313   0.750491   0.499996   x
            x  C                17         0.666379   0.082826   0.499982   x
            x  C                18         0.500517   0.000096   0.500243   x
            x  C                19         0.667530   0.331439   0.499752   x
            x  C                20         0.504144   0.243752   0.495104   x
            x  C                21         0.678115   0.590237   0.495518   x
            x  C                22         0.504374   0.509402   0.502037   x
            x  C                23         0.666955   0.833683   0.499960   x
            x  C                24         0.498349   0.751847   0.499657   x
            x  C                25         0.916759   0.082894   0.499984   x
            x  C                26         0.749536  -0.001343   0.499997   x
            x  C                27         0.917147   0.334015   0.500039   x
            x  C                28         0.749475   0.249343   0.500258   x
            x  C                29         0.916961   0.584128   0.500204   x
            x  C                30         0.752124   0.502005   0.499628   x
            x  C                31         0.917062   0.833279   0.500180   x
            x  C                32         0.753427   0.751760   0.499685   x
            xxxxxxxxxxxxxxxxxxxxxxxxxxxxxxxxxxxxxxxxxxxxxxxxxxxxxxxxxxxxxxxxx
 
 
------------------------------------------------------------------------ <-- SCF
SCF loop      Energy           Fermi           Energy gain       Timer   <-- SCF
                               energy          per atom          (sec)   <-- SCF
------------------------------------------------------------------------ <-- SCF
Initial  -5.18460139E+003  0.00000000E+000                       284.54  <-- SCF
      1  -5.19979651E+003 -1.99099101E+000   4.46915501E-001     289.35  <-- SCF
      2  -5.20027528E+003 -2.01556979E+000   1.40812778E-002     295.97  <-- SCF
      3  -5.20020138E+003 -2.01214377E+000  -2.17358468E-003     302.16  <-- SCF
      4  -5.20020144E+003 -2.00729493E+000   1.95364030E-006     308.13  <-- SCF
      5  -5.20020144E+003 -2.00671642E+000   3.67800306E-008     314.57  <-- SCF
      6  -5.20020152E+003 -2.00621042E+000   2.25394496E-006     319.82  <-- SCF
      7  -5.20020175E+003 -2.00554665E+000   6.69589204E-006     324.78  <-- SCF
      8  -5.20020201E+003 -2.00533528E+000   7.71083587E-006     329.82  <-- SCF
      9  -5.20020224E+003 -2.00508765E+000   6.81665435E-006     334.87  <-- SCF
     10  -5.20020235E+003 -2.00499695E+000   3.25500725E-006     340.01  <-- SCF
     11  -5.20020242E+003 -2.00494486E+000   2.08172133E-006     345.11  <-- SCF
     12  -5.20020245E+003 -2.00488806E+000   6.71450072E-007     350.22  <-- SCF
     13  -5.20020246E+003 -2.00475593E+000   5.59345346E-007     355.24  <-- SCF
     14  -5.20020248E+003 -2.00463033E+000   5.25840594E-007     360.33  <-- SCF
     15  -5.20020251E+003 -2.00449405E+000   8.94648382E-007     365.37  <-- SCF
     16  -5.20020253E+003 -2.00443407E+000   6.39933853E-007     370.41  <-- SCF
     17  -5.20020254E+003 -2.00440733E+000   3.13217880E-007     375.37  <-- SCF
------------------------------------------------------------------------ <-- SCF
 
Final energy, E             =  -5200.191007481     eV
Final free energy (E-TS)    =  -5200.202544958     eV
(energies not corrected for finite basis set)
 
NB est. 0K energy (E-0.5TS)      =  -5200.196776220     eV
 
(SEDC) Total Energy Correction : -0.281244E+01 eV

Dispersion corrected final energy*, Ecor          =  -5203.003444795     eV
Dispersion corrected final free energy* (Ecor-TS) =  -5203.014982271     eV
NB dispersion corrected est. 0K energy* (Ecor-0.5TS) =  -5203.009213533     eV
 
 ************************************** Forces **************************************
 *                                                                                  *
 *                           Cartesian components (eV/A)                            *
 * -------------------------------------------------------------------------------- *
 *                         x                    y                    z              *
 *                                                                                  *
 * H               1     -0.03370             -0.91949             -0.30853         *
 * H               2      0.09383              0.72101             -0.01980         *
 * C               1      0.46669              0.28110             -0.55549         *
 * C               2     -0.63908             -0.84208              0.07097         *
 * C               3      0.55141              0.17247             -0.49992         *
 * C               4     -0.87261             -0.16818              0.04688         *
 * C               5     -0.64594              0.07225              0.02731         *
 * C               6     -0.01769              0.29730              0.11760         *
 * C               7      0.01307              0.27054              0.06858         *
 * C               8      0.09036             -0.04207              0.03455         *
 * C               9     -0.46355              0.28026             -0.57979         *
 * C              10      0.00434             -0.59534              0.04742         *
 * C              11     -0.09472              1.20738              2.67076         *
 * C              12      0.74275              0.57864             -0.29469         *
 * C              13      1.19876             -0.99423             -0.29872         *
 * C              14     -0.09422             -0.09994             -0.50890         *
 * C              15     -0.54900              0.79962              0.07414         *
 * C              16     -0.13962             -0.03347              0.03728         *
 * C              17      0.08669              0.05952              0.04367         *
 * C              18      0.60524             -0.83064              0.08026         *
 * C              19     -0.54333              0.14165             -0.52242         *
 * C              20     -0.62187              0.55854             -0.31964         *
 * C              21     -1.27665             -0.97260             -0.27193         *
 * C              22      0.04326             -0.95673              1.98091         *
 * C              23     -0.01599              0.30030              0.04368         *
 * C              24      0.35903              0.28612             -0.56457         *
 * C              25     -0.04551              0.06817              0.04386         *
 * C              26     -0.01145             -0.17522              0.06665         *
 * C              27      0.00807             -0.30632              0.12484         *
 * C              28      0.86507             -0.16559              0.04136         *
 * C              29      0.64102              0.07029              0.02854         *
 * C              30      0.08014             -0.12643             -0.45742         *
 * C              31      0.57311              0.79144              0.06641         *
 * C              32     -0.35789              0.27170             -0.51384         *
 *                                                                                  *
 ************************************************************************************
  
 +------------+-------------+-------------+-----------------+ <-- min LBFGS
 |    Step    |   lambda    |   F.delta'  |    enthalpy     | <-- min LBFGS
 +------------+-------------+-------------+-----------------+ <-- min LBFGS
 |  previous  |    0.000000 |    2.413980 |    -5202.327285 | <-- min LBFGS
 | trial step |    1.000000 |    1.827240 |    -5202.626590 | <-- min LBFGS
 |  line step |    4.114221 |    0.005373 |    -5203.014982 | <-- min LBFGS
 +------------+-------------+-------------+-----------------+ <-- min LBFGS
  
 LBFGS: finished iteration     2 with enthalpy= -5.20301498E+003 eV
  
 +-----------+-----------------+-----------------+------------+-----+ <-- LBFGS
 | Parameter |      value      |    tolerance    |    units   | OK? | <-- LBFGS
 +-----------+-----------------+-----------------+------------+-----+ <-- LBFGS
 |  dE/ion   |   2.022638E-002 |   2.000000E-005 |         eV | No  | <-- LBFGS
 |  |F|max   |   2.932520E+000 |   1.000000E-002 |       eV/A | No  | <-- LBFGS
 |  |dR|max  |   1.036205E-001 |   1.000000E-003 |          A | No  | <-- LBFGS
 +-----------+-----------------+-----------------+------------+-----+ <-- LBFGS
  

================================================================================
 Starting LBFGS iteration          3 ...
================================================================================
  
 +------------+-------------+-------------+-----------------+ <-- min LBFGS
 |    Step    |   lambda    |   F.delta'  |    enthalpy     | <-- min LBFGS
 +------------+-------------+-------------+-----------------+ <-- min LBFGS
 |  previous  |    0.000000 |    2.166961 |    -5203.014982 | <-- min LBFGS
 +------------+-------------+-------------+-----------------+ <-- min LBFGS
  

--------------------------------------------------------------------------------
 LBFGS: starting iteration         3 with trial guess (lambda=  1.000000)
--------------------------------------------------------------------------------
 
                           -------------------------------
                                     Cell Contents
                           -------------------------------
 
            xxxxxxxxxxxxxxxxxxxxxxxxxxxxxxxxxxxxxxxxxxxxxxxxxxxxxxxxxxxxxxxxx
            x  Element         Atom        Fractional coordinates of atoms  x
            x                 Number           u          v          w      x
            x---------------------------------------------------------------x
            x  H                 1         0.411603   0.320547   0.557109   x
            x  H                 2         0.505028   0.515427   0.558549   x
            x  C                 1         0.162919   0.080828   0.499467   x
            x  C                 2        -0.001306  -0.000711   0.500291   x
            x  C                 3         0.164086   0.331502   0.499508   x
            x  C                 4        -0.000940   0.249074   0.500307   x
            x  C                 5         0.166536   0.584190   0.500263   x
            x  C                 6        -0.000361   0.499578   0.500097   x
            x  C                 7         0.167226   0.834865   0.500037   x
            x  C                 8        -0.000021   0.750458   0.500013   x
            x  C                 9         0.417879   0.080794   0.499439   x
            x  C                10         0.249684  -0.000446   0.499880   x
            x  C                11         0.412725   0.325071   0.501865   x
            x  C                12         0.239795   0.243832   0.494593   x
            x  C                13         0.412295   0.590212   0.494305   x
            x  C                14         0.249339   0.501879   0.499324   x
            x  C                15         0.416060   0.834126   0.500263   x
            x  C                16         0.250200   0.750545   0.500012   x
            x  C                17         0.666464   0.082797   0.499998   x
            x  C                18         0.500639  -0.000725   0.500311   x
            x  C                19         0.667498   0.331552   0.499487   x
            x  C                20         0.504078   0.243746   0.494366   x
            x  C                21         0.677489   0.589964   0.494851   x
            x  C                22         0.504331   0.509368   0.503340   x
            x  C                23         0.667007   0.833807   0.499974   x
            x  C                24         0.498661   0.752585   0.499360   x
            x  C                25         0.916686   0.082878   0.500001   x
            x  C                26         0.749429  -0.001559   0.500025   x
            x  C                27         0.917014   0.333736   0.500100   x
            x  C                28         0.750110   0.249136   0.500311   x
            x  C                29         0.917583   0.584249   0.500242   x
            x  C                30         0.752418   0.501910   0.499373   x
            x  C                31         0.917951   0.834070   0.500232   x
            x  C                32         0.753832   0.752468   0.499416   x
            xxxxxxxxxxxxxxxxxxxxxxxxxxxxxxxxxxxxxxxxxxxxxxxxxxxxxxxxxxxxxxxxx
 
 
------------------------------------------------------------------------ <-- SCF
SCF loop      Energy           Fermi           Energy gain       Timer   <-- SCF
                               energy          per atom          (sec)   <-- SCF
------------------------------------------------------------------------ <-- SCF
Initial  -5.19818206E+003  0.00000000E+000                       379.76  <-- SCF
      1  -5.20042974E+003 -2.05278595E+000   6.61081532E-002     384.40  <-- SCF
      2  -5.20044846E+003 -2.05300219E+000   5.50875900E-004     391.73  <-- SCF
      3  -5.20043645E+003 -2.04480376E+000  -3.53288118E-004     397.88  <-- SCF
      4  -5.20043681E+003 -2.04665243E+000   1.06239089E-005     403.88  <-- SCF
      5  -5.20043679E+003 -2.04562624E+000  -5.73123817E-007     409.94  <-- SCF
      6  -5.20043680E+003 -2.04548665E+000   1.00732444E-007     415.01  <-- SCF
------------------------------------------------------------------------ <-- SCF
 
Final energy, E             =  -5200.425111397     eV
Final free energy (E-TS)    =  -5200.436798196     eV
(energies not corrected for finite basis set)
 
NB est. 0K energy (E-0.5TS)      =  -5200.430954797     eV
 
(SEDC) Total Energy Correction : -0.281038E+01 eV

Dispersion corrected final energy*, Ecor          =  -5203.235492342     eV
Dispersion corrected final free energy* (Ecor-TS) =  -5203.247179142     eV
NB dispersion corrected est. 0K energy* (Ecor-0.5TS) =  -5203.241335742     eV
 
 ************************************** Forces **************************************
 *                                                                                  *
 *                           Cartesian components (eV/A)                            *
 * -------------------------------------------------------------------------------- *
 *                         x                    y                    z              *
 *                                                                                  *
 * H               1     -0.02927             -0.89082              0.21364         *
 * H               2      0.07892              0.74086              0.21118         *
 * C               1      0.28326              0.30606             -0.57524         *
 * C               2     -0.18941             -0.17144              0.02164         *
 * C               3      0.34338             -0.02772             -0.53768         *
 * C               4     -0.34274             -0.06057              0.00496         *
 * C               5     -0.35351              0.06989             -0.01280         *
 * C               6     -0.01205              0.13673              0.12793         *
 * C               7      0.00562             -0.01829              0.09459         *
 * C               8      0.17903              0.05180              0.04965         *
 * C               9     -0.27428              0.31259             -0.59958         *
 * C              10     -0.00024             -0.31000              0.02117         *
 * C              11     -0.05591              0.99863              1.82432         *
 * C              12      0.64306              0.58404             -0.02545         *
 * C              13      0.89012             -0.72198             -0.00849         *
 * C              14      0.13652              0.02792             -0.54104         *
 * C              15     -0.22454              0.21784              0.02808         *
 * C              16     -0.20818              0.05447              0.05295         *
 * C              17      0.20546             -0.05142              0.06178         *
 * C              18      0.17231             -0.16945              0.03007         *
 * C              19     -0.32062             -0.04110             -0.55709         *
 * C              20     -0.59913              0.57040             -0.04482         *
 * C              21     -0.91345             -0.71678             -0.00559         *
 * C              22      0.03507             -0.92352              1.46975         *
 * C              23     -0.00893              0.27392              0.00916         *
 * C              24      0.27977             -0.15488             -0.59219         *
 * C              25     -0.18290             -0.05139              0.06219         *
 * C              26     -0.00675              0.02581              0.09521         *
 * C              27      0.00310             -0.13560              0.13658         *
 * C              28      0.35000             -0.06543             -0.00175         *
 * C              29      0.33743              0.06262             -0.00779         *
 * C              30     -0.16700              0.01800             -0.49048         *
 * C              31      0.23663              0.20758              0.02387         *
 * C              32     -0.29076             -0.14876             -0.53875         *
 *                                                                                  *
 ************************************************************************************
  
 +------------+-------------+-------------+-----------------+ <-- min LBFGS
 |    Step    |   lambda    |   F.delta'  |    enthalpy     | <-- min LBFGS
 +------------+-------------+-------------+-----------------+ <-- min LBFGS
 |  previous  |    0.000000 |    2.166961 |    -5203.014982 | <-- min LBFGS
 | trial step |    1.000000 |    1.415776 |    -5203.247179 | <-- min LBFGS
[...]
      C    17      Pz                   1.002
      C    18      S                    1.027
      C    18      Px                   0.988
      C    18      Py                   0.987
      C    18      Pz                   0.996
      C    19      S                    1.030
      C    19      Px                   0.991
      C    19      Py                   0.982
      C    19      Pz                   1.013
      C    20      S                    1.041
      C    20      Px                   0.974
      C    20      Py                   0.988
      C    20      Pz                   0.979
      C    21      S                    1.041
      C    21      Px                   0.974
      C    21      Py                   0.988
      C    21      Pz                   0.979
      C    22      S                    1.188
      C    22      Px                   0.973
      C    22      Py                   0.970
      C    22      Pz                   1.150
      C    23      S                    1.029
      C    23      Px                   0.982
      C    23      Py                   0.990
      C    23      Pz                   1.013
      C    24      S                    1.027
      C    24      Px                   0.987
      C    24      Py                   0.988
      C    24      Pz                   1.007
      C    25      S                    1.026
      C    25      Px                   0.986
      C    25      Py                   0.987
      C    25      Pz                   1.002
      C    26      S                    1.027
      C    26      Px                   0.986
      C    26      Py                   0.991
      C    26      Pz                   0.997
      C    27      S                    1.029
      C    27      Px                   0.986
      C    27      Py                   0.988
      C    27      Pz                   1.004
      C    28      S                    1.030
      C    28      Px                   0.984
      C    28      Py                   0.987
      C    28      Pz                   0.999
      C    29      S                    1.029
      C    29      Px                   0.984
      C    29      Py                   0.987
      C    29      Pz                   1.000
      C    30      S                    1.030
      C    30      Px                   0.991
      C    30      Py                   0.982
      C    30      Pz                   1.012
      C    31      S                    1.027
      C    31      Px                   0.988
      C    31      Py                   0.988
      C    31      Pz                   0.997
      C    32      S                    1.026
      C    32      Px                   0.987
      C    32      Py                   0.988
      C    32      Pz                   1.006
  -------------------------------------------
                           Total:     129.996
  -------------------------------------------
 
     Atomic Populations (Mulliken)
     -----------------------------
Species          Ion     s       p       d       f      Total   Charge (e)
==========================================================================
  H               1     0.682   0.000   0.000   0.000   0.682     0.318
  H               2     0.682   0.000   0.000   0.000   0.682     0.318
  C               1     1.026   2.981   0.000   0.000   4.007    -0.007
  C               2     1.026   2.973   0.000   0.000   3.999     0.001
  C               3     1.030   2.986   0.000   0.000   4.016    -0.016
  C               4     1.029   2.972   0.000   0.000   4.001    -0.001
  C               5     1.030   2.970   0.000   0.000   4.001    -0.001
  C               6     1.028   2.977   0.000   0.000   4.005    -0.005
  C               7     1.027   2.973   0.000   0.000   4.000    -0.000
  C               8     1.025   2.975   0.000   0.000   4.001    -0.001
  C               9     1.027   2.981   0.000   0.000   4.008    -0.008
  C              10     1.029   2.985   0.000   0.000   4.014    -0.014
  C              11     1.188   3.093   0.000   0.000   4.281    -0.281
  C              12     1.041   2.942   0.000   0.000   3.983     0.017
  C              13     1.041   2.941   0.000   0.000   3.983     0.017
  C              14     1.030   2.986   0.000   0.000   4.016    -0.016
  C              15     1.027   2.972   0.000   0.000   3.999     0.001
  C              16     1.027   2.975   0.000   0.000   4.002    -0.002
  C              17     1.027   2.975   0.000   0.000   4.002    -0.002
  C              18     1.027   2.971   0.000   0.000   3.999     0.001
  C              19     1.030   2.986   0.000   0.000   4.016    -0.016
  C              20     1.041   2.941   0.000   0.000   3.982     0.018
  C              21     1.041   2.941   0.000   0.000   3.982     0.018
  C              22     1.188   3.092   0.000   0.000   4.280    -0.280
  C              23     1.029   2.985   0.000   0.000   4.014    -0.014
  C              24     1.027   2.981   0.000   0.000   4.008    -0.008
  C              25     1.026   2.976   0.000   0.000   4.002    -0.002
  C              26     1.027   2.974   0.000   0.000   4.001    -0.001
  C              27     1.029   2.977   0.000   0.000   4.005    -0.005
  C              28     1.030   2.971   0.000   0.000   4.001    -0.001
  C              29     1.029   2.971   0.000   0.000   4.001    -0.001
  C              30     1.030   2.986   0.000   0.000   4.016    -0.016
  C              31     1.027   2.973   0.000   0.000   3.999     0.001
  C              32     1.026   2.982   0.000   0.000   4.008    -0.008
==========================================================================
 
                 Bond                   Population      Length (A)
======================================================================
               H 1 -- C 11                   0.85        1.11074
               H 2 -- C 22                   0.85        1.11081
              C 3  -- C 12                   1.17        1.40164
              C 21 -- C 30                   1.17        1.40168
              C 19 -- C 20                   1.17        1.40270
              C 13 -- C 14                   1.17        1.40273
              C 7  -- C 10                   1.13        1.41116
              C 23 -- C 26                   1.13        1.41119
              C 13 -- C 24                   1.14        1.41135
              C 9  -- C 20                   1.14        1.41145
              C 21 -- C 32                   1.13        1.41180
              C 1  -- C 12                   1.13        1.41190
              C 2  -- C 25                   1.09        1.41942
              C 8  -- C 31                   1.09        1.41947
              C 17 -- C 18                   1.09        1.42201
              C 15 -- C 16                   1.09        1.42204
              C 8  -- C 29                   1.09        1.42298
              C 4  -- C 25                   1.09        1.42308
              C 5  -- C 16                   1.09        1.42403
              C 6  -- C 27                   1.08        1.42410
              C 17 -- C 28                   1.09        1.42414
              C 15 -- C 18                   1.07        1.42417
              C 2  -- C 31                   1.07        1.42467
              C 1  -- C 2                    1.06        1.42627
              C 31 -- C 32                   1.06        1.42630
              C 9  -- C 18                   1.06        1.42691
              C 15 -- C 24                   1.06        1.42694
              C 4  -- C 27                   1.06        1.42841
              C 6  -- C 29                   1.06        1.42848
              C 27 -- C 28                   1.06        1.43035
              C 5  -- C 6                    1.06        1.43041
              C 3  -- C 4                    1.06        1.43120
              C 29 -- C 30                   1.06        1.43123
              C 19 -- C 28                   1.06        1.43130
              C 5  -- C 14                   1.06        1.43133
              C 25 -- C 26                   1.04        1.43152
              C 17 -- C 26                   1.04        1.43153
              C 7  -- C 8                    1.04        1.43155
              C 7  -- C 16                   1.04        1.43160
              C 1  -- C 10                   1.04        1.43679
              C 23 -- C 32                   1.04        1.43683
              C 9  -- C 10                   1.03        1.43840
              C 23 -- C 24                   1.03        1.43844
              C 3  -- C 14                   0.98        1.45390
              C 19 -- C 30                   0.98        1.45391
              C 11 -- C 12                   0.81        1.51317
              C 21 -- C 22                   0.81        1.51323
              C 11 -- C 20                   0.81        1.51337
              C 13 -- C 22                   0.81        1.51344
              C 11 -- C 22                   0.72        1.56120
               H 1 -- C 12                  -0.18        2.05235
               H 2 -- C 21                  -0.18        2.05241
               H 1 -- C 20                  -0.18        2.05375
               H 2 -- C 13                  -0.18        2.05389
               H 1 -- H 2                   -0.12        2.12128
               H 1 -- C 22                  -0.16        2.13186
               H 2 -- C 11                  -0.16        2.13220
              C 30 -- C 32                  -0.18        2.44817
              C 1  -- C 3                   -0.18        2.44818
              C 14 -- C 24                  -0.18        2.44847
              C 9  -- C 19                  -0.18        2.44856
              C 21 -- C 29                  -0.18        2.44913
              C 4  -- C 12                  -0.18        2.44921
              C 5  -- C 13                  -0.18        2.45023
              C 20 -- C 28                  -0.18        2.45024
              C 2  -- C 12                  -0.18        2.45269
              C 21 -- C 31                  -0.18        2.45272
              C 18 -- C 20                  -0.18        2.45303
              C 13 -- C 15                  -0.18        2.45308
              C 8  -- C 32                  -0.18        2.45988
              C 1  -- C 25                  -0.18        2.45989
              C 29 -- C 31                  -0.18        2.46309
              C 2  -- C 4                   -0.18        2.46315
              C 9  -- C 17                  -0.18        2.46357
              C 16 -- C 24                  -0.18        2.46359
              C 5  -- C 15                  -0.18        2.46374
              C 18 -- C 28                  -0.18        2.46387
              C 2  -- C 26                  -0.18        2.46393
              C 7  -- C 31                  -0.18        2.46405
              C 10 -- C 16                  -0.18        2.46540
              C 17 -- C 23                  -0.18        2.46542
              C 3  -- C 25                  -0.18        2.46553
              C 8  -- C 30                  -0.18        2.46558
              C 1  -- C 7                   -0.18        2.46595
              C 26 -- C 32                  -0.18        2.46605
              C 8  -- C 10                  -0.18        2.46671
              C 23 -- C 25                  -0.18        2.46675
              C 9  -- C 15                  -0.18        2.46700
              C 1  -- C 31                  -0.18        2.46710
              C 18 -- C 24                  -0.18        2.46711
              C 2  -- C 32                  -0.18        2.46724
              C 25 -- C 31                  -0.18        2.46755
              C 2  -- C 8                   -0.18        2.46758
              C 18 -- C 26                  -0.18        2.46764
              C 7  -- C 15                  -0.18        2.46778
              C 17 -- C 19                  -0.18        2.46786
              C 7  -- C 9                   -0.18        2.46787
              C 14 -- C 16                  -0.18        2.46794
              C 24 -- C 26                  -0.18        2.46797
              C 16 -- C 18                  -0.18        2.46859
              C 15 -- C 17                  -0.18        2.46859
              C 4  -- C 28                  -0.18        2.46898
              C 5  -- C 29                  -0.18        2.46917
              C 17 -- C 25                  -0.18        2.47044
              C 8  -- C 16                  -0.18        2.47060
              C 6  -- C 28                  -0.18        2.47336
              C 5  -- C 27                  -0.18        2.47337
              C 6  -- C 8                   -0.17        2.47395
              C 25 -- C 27                  -0.17        2.47400
              C 6  -- C 16                  -0.18        2.47433
              C 17 -- C 27                  -0.17        2.47445
              C 23 -- C 31                  -0.18        2.47468
              C 2  -- C 10                  -0.18        2.47478
              C 4  -- C 6                   -0.18        2.47545
              C 27 -- C 29                  -0.18        2.47549
              C 7  -- C 29                  -0.17        2.47551
              C 4  -- C 26                  -0.17        2.47562
              C 10 -- C 12                  -0.18        2.47640
              C 21 -- C 23                  -0.18        2.47643
              C 3  -- C 27                  -0.18        2.47680
              C 6  -- C 30                  -0.18        2.47680
              C 10 -- C 20                  -0.18        2.47680
              C 13 -- C 23                  -0.18        2.47681
              C 15 -- C 23                  -0.18        2.47705
              C 10 -- C 18                  -0.17        2.47713
              C 5  -- C 7                   -0.17        2.47747
              C 26 -- C 28                  -0.17        2.47750
              C 19 -- C 27                  -0.18        2.47936
              C 6  -- C 14                  -0.18        2.47940
              C 12 -- C 14                  -0.18        2.48329
              C 19 -- C 21                  -0.18        2.48338
              C 20 -- C 30                  -0.18        2.48388
              C 3  -- C 13                  -0.18        2.48392
              C 24 -- C 32                  -0.17        2.48948
              C 1  -- C 9                   -0.17        2.48954
              C 4  -- C 14                  -0.17        2.49243
              C 19 -- C 29                  -0.17        2.49255
              C 28 -- C 30                  -0.17        2.49282
              C 3  -- C 5                   -0.17        2.49290
              C 22 -- C 32                  -0.18        2.49791
              C 1  -- C 11                  -0.17        2.49793
              C 9  -- C 11                  -0.17        2.49844
              C 22 -- C 24                  -0.18        2.49846
              C 13 -- C 21                  -0.15        2.53276
              C 12 -- C 20                  -0.15        2.53276
              C 3  -- C 11                  -0.17        2.53858
              C 22 -- C 30                  -0.17        2.53860
              C 11 -- C 19                  -0.17        2.53949
              C 14 -- C 22                  -0.17        2.53959
              C 11 -- C 13                  -0.12        2.60812
              C 20 -- C 22                  -0.12        2.60813
              C 12 -- C 22                  -0.12        2.60815
              C 11 -- C 21                  -0.12        2.60816
               H 1 -- C 1                   -0.04        2.77370
               H 2 -- C 32                  -0.04        2.77373
               H 1 -- C 9                   -0.04        2.77614
               H 2 -- C 24                  -0.04        2.77621
              C 8  -- C 21                  -0.12        2.82556
              C 12 -- C 25                  -0.12        2.82557
              C 17 -- C 20                  -0.12        2.82908
              C 13 -- C 16                  -0.12        2.82920
              C 29 -- C 32                  -0.11        2.83986
              C 1  -- C 4                   -0.11        2.83999
              C 5  -- C 24                  -0.11        2.84063
              C 9  -- C 28                  -0.11        2.84079
              C 2  -- C 3                   -0.11        2.84198
              C 30 -- C 31                  -0.11        2.84209
              C 18 -- C 19                  -0.11        2.84251
              C 14 -- C 15                  -0.11        2.84254
              C 26 -- C 31                  -0.10        2.84658
              C 2  -- C 7                   -0.10        2.84672
              C 2  -- C 23                  -0.10        2.84731
              C 10 -- C 31                  -0.10        2.84735
              C 18 -- C 23                  -0.10        2.84879
              C 10 -- C 15                  -0.10        2.84886
              C 4  -- C 17                  -0.10        2.84953
              C 16 -- C 29                  -0.10        2.84958
              C 15 -- C 26                  -0.10        2.85013
              C 7  -- C 18                  -0.10        2.85024
              C 25 -- C 28                  -0.10        2.85174
              C 5  -- C 8                   -0.10        2.85189
              C 9  -- C 16                  -0.10        2.85292
              C 17 -- C 24                  -0.10        2.85310
              C 1  -- C 8                   -0.10        2.85355
              C 25 -- C 32                  -0.10        2.85373
              C 10 -- C 11                  -0.08        2.86169
              C 22 -- C 23                  -0.08        2.86183
              C 14 -- C 27                  -0.09        2.86399
              C 6  -- C 19                  -0.09        2.86406
              C 4  -- C 5                   -0.10        2.86462
              C 28 -- C 29                  -0.10        2.86466
              C 27 -- C 30                  -0.09        2.86704
              C 6  -- C 7                   -0.10        2.86712
              C 3  -- C 6                   -0.09        2.86715
              C 26 -- C 27                  -0.10        2.86729
              C 13 -- C 32                  -0.08        2.88038
              C 1  -- C 20                  -0.08        2.88049
              C 21 -- C 24                  -0.08        2.88080
              C 9  -- C 12                  -0.08        2.88084
              C 12 -- C 13                  -0.10        2.89027
              C 20 -- C 21                  -0.10        2.89033
              C 11 -- C 14                  -0.06        2.95234
              C 19 -- C 22                  -0.06        2.95234
              C 11 -- C 30                  -0.06        2.95245
              C 3  -- C 22                  -0.06        2.95250
               H 1 -- C 3                   -0.02        2.99960
               H 2 -- C 30                  -0.02        2.99973
======================================================================
 

Writing analysis data to 4x4.castep_bin

Writing model to 4x4.check
 
 A BibTeX formatted list of references used in this run has been written to 
 4x4.bib
 
Initialisation time =      3.10 s
Calculation time    =   2168.40 s
Finalisation time   =      2.07 s
Total time          =   2173.57 s
Peak Memory Use     = 1018200 kB
  
Overall parallel efficiency rating: Mediocre (53%)                              
  
Data was distributed by:-
G-vector (16-way); efficiency rating: Mediocre (55%)                            
k-point (8-way); efficiency rating: Excellent (94%)                             
