 +-------------------------------------------------+
 |                                                 |
 |      CCC   AA    SSS  TTTTT  EEEEE  PPPP        |
 |     C     A  A  S       T    E      P   P       |
 |     C     AAAA   SS     T    EEE    PPPP        |
 |     C     A  A     S    T    E      P           |
 |      CCC  A  A  SSS     T    EEEEE  P           |
 |                                                 |
 +-------------------------------------------------+
 |                                                 |
 | Welcome to Academic Release CASTEP version 21.11|          
 | Ab Initio Total Energy Program                  |
 |                                                 |
 | Authors:                                        |
 | M. Segall, M. Probert, C. Pickard, P. Hasnip,   |
 | S. Clark, K. Refson, J. R. Yates, M. Payne      |
 |                                                 |
 | Contributors:                                   |
 | P. Lindan, P. Haynes, J. White, V. Milman,      |
 | N. Govind, M. Gibson, P. Tulip, V. Cocula,      |
 | B. Montanari, D. Quigley, M. Glover,            |
 | L. Bernasconi, A. Perlov, M. Plummer,           |
 | E. McNellis, J. Meyer, J. Gale, D. Jochym       |
 | J. Aarons, B. Walker, R. Gillen, D. Jones       |
 | T. Green, I. J. Bush, C. J. Armstrong,          |
 | E. J. Higgins, E. L. Brown, M. S. McFly,        |
 | J. Wilkins, B-C. Shih, P. J. P. Byrne,          |
 | R. J. Maurer, J. C. Womack, J. Dziedzic,        |
 | A. Bartok-Partay, L. LeBlanc                    |
 |                                                 |
 | Copyright (c) 2000 - 2021                       |
 |                                                 |
 |     Distributed under license from Cambridge    |
 |     Enterprise for academic use only.           |
 |                                                 |
 | Please cite                                     |
 |                                                 |
 |     "First principles methods using CASTEP"     |
 |                                                 |
 |         Zeitschrift fuer Kristallographie       |
 |           220(5-6) pp. 567-570 (2005)           |
 |                                                 |
 | S. J. Clark, M. D. Segall, C. J. Pickard,       |
 | P. J. Hasnip, M. J. Probert, K. Refson,         |
 | M. C. Payne                                     |
 |                                                 |
 |       in all publications arising from          |
 |              your use of CASTEP                 |
 |                                                 |
 +-------------------------------------------------+
 |                                                 |
 |              http://www.castep.org              |
 |                                                 |
 +-------------------------------------------------+
 
 
 
 Compiled for linux_x86_64_cray-XT on Tue, 01 Mar 2022 09:19:15 +0000
 from code version 7d4405a8a+  HEAD  Sat Nov 27 13:38:33 2021 +0000
 Compiler: Cray Fortran 12.0.3; Optimisation: fast
 MATHLIBS: LibSci (LAPACK version 3.6.1)
 FFT Lib : fftw3 version commercial-fftw-3.3.8-sse2-avx-avx2-avx2_128
 Fundamental constants values: CODATA 2014
 
 Run started: Fri, 28 Oct 2022 14:05:49 -0100
 
 Atomic calculation performed for H: 1s1
 
 Converged in 41 iterations to an ae energy of -12.488 eV
 
   ============================================================                
   | Pseudopotential Report - Date of generation 28-10-2022   |                
   ------------------------------------------------------------                
   | Element: H Ionic charge:  1.00 Level of theory: PBE      |                
   | Atomic Solver: Koelling-Harmon                           |                
   |                                                          |                
   |               Reference Electronic Structure             |                
   |         Orbital         Occupation         Energy        |                
   |            1s              1.000           -0.239        |                
   |                                                          |                
   |                 Pseudopotential Definition               |                
   |        Beta     l      e      Rc     scheme   norm       |                
   |          1      0   -0.239   0.599     qc      0         |                
   |          2      0    0.250   0.599     qc      0         |                
   |         loc     1    0.000   0.599     pn      0         |                
   |                                                          |                
   | Augmentation charge Rinner = 0.421                       |                
   | No partial core correction                               |                
   ------------------------------------------------------------                
   | "1|0.6|13|15|17|10(qc=8)"                                |                
   ------------------------------------------------------------                
   |      Author: Chris J. Pickard, Cambridge University      |                
   ============================================================                
 
 Atomic calculation performed for C: 1s2 2s2 2p2
 
 Converged in 54 iterations to an ae energy of -1027.632 eV
 
   ============================================================                
   | Pseudopotential Report - Date of generation 28-10-2022   |                
   ------------------------------------------------------------                
   | Element: C Ionic charge:  4.00 Level of theory: PBE      |                
   | Atomic Solver: Koelling-Harmon                           |                
   |                                                          |                
   |               Reference Electronic Structure             |                
   |         Orbital         Occupation         Energy        |                
   |            2s              2.000           -0.505        |                
   |            2p              2.000           -0.194        |                
   |                                                          |                
   |                 Pseudopotential Definition               |                
   |        Beta     l      e      Rc     scheme   norm       |                
   |          1      0   -0.505   1.201     qc      1         |                
   |         loc     1   -0.194   1.201     qc      1         |                
   |                                                          |                
   | No charge augmentation                                   |                
   | Partial core correction Rc = 0.839                       |                
   ------------------------------------------------------------                
   | "1|1.2|17|20|23|20N:21L(qc=8)"                           |                
   ------------------------------------------------------------                
   |      Author: Chris J. Pickard, Cambridge University      |                
   ============================================================                
 
 Pseudo atomic calculation performed for H 1s1
 
 Converged in 13 iterations to a total energy of -12.4856 eV
 
 Pseudo atomic calculation performed for C 2s2 2p2
 
 Converged in 18 iterations to a total energy of -152.4291 eV
 Calculation parallelised over 128 processes.
 Data is distributed by G-vector(16-way) and k-point(8-way)

 ************************************ Title ************************************
 

 ***************************** General Parameters ******************************
  
 output verbosity                               : normal  (1)
 write checkpoint data to                       : 4x4.check
 type of calculation                            : transition state search
 stress calculation                             : off
 density difference calculation                 : off
 electron localisation func (ELF) calculation   : off
 Hirshfeld analysis                             : off
 polarisation (Berry phase) analysis            : off
 molecular orbital projected DOS                : off
 deltaSCF calculation                           : off
 unlimited duration calculation
 timing information                             : on
 memory usage estimate                          : on
 write extra output files                       : on
 write final potential to formatted file        : off
 write final density to formatted file          : off
 write structure in CELL formatted file         : on
 write BibTeX reference list                    : on
 write OTFG pseudopotential files               : on
 write electrostatic potential file             : on
 write bands file                               : on
 checkpoint writing                             : both castep_bin and check files
  
 output         length unit                     : A
 output           mass unit                     : amu
 output           time unit                     : ps
 output         charge unit                     : e
 output           spin unit                     : hbar/2
 output         energy unit                     : eV
 output          force unit                     : eV/A
 output       velocity unit                     : A/ps
 output       pressure unit                     : GPa
 output     inv_length unit                     : 1/A
 output      frequency unit                     : cm-1
 output force constant unit                     : eV/A**2
 output         volume unit                     : A**3
 output   IR intensity unit                     : (D/A)**2/amu
 output         dipole unit                     : D
 output         efield unit                     : eV/A/e
 output        entropy unit                     : J/mol/K
 output    efield chi2 unit                     : pm/V
  
 wavefunctions paging                           : none
 random number generator seed                   : randomised (140549450)
 data distribution                              : optimal for this architecture
 optimization strategy                          : maximize speed(+++)

 *********************** Exchange-Correlation Parameters ***********************
  
 using functional                               : Perdew Burke Ernzerhof
 relativistic treatment                         : Koelling-Harmon
 DFT+D: Semi-empirical dispersion correction    : on
 SEDC with                                      : MBD@rsSCS method

 ************************* Pseudopotential Parameters **************************
  
 pseudopotential representation                 : reciprocal space
 <beta|phi> representation                      : reciprocal space
 spin-orbit coupling                            : off

 **************************** Basis Set Parameters *****************************
  
 plane wave basis set cut-off                   :   800.0000   eV
 size of standard grid                          :     1.7500
 size of   fine   gmax                          :    25.3584   1/A
 finite basis set correction                    : none

 **************************** Electronic Parameters ****************************
  
 number of  electrons                           :  130.0    
 net charge of system                           :  0.000    
 treating system as non-spin-polarized
 number of bands                                :         98

 ********************* Electronic Minimization Parameters **********************
  
 Method: Treating system as metallic with density mixing treatment of electrons,
         and number of  SD  steps               :          1
         and number of  CG  steps               :          4
  
 total energy / atom convergence tol.           : 0.1000E-05   eV
 eigen-energy convergence tolerance             : 0.3469E-06   eV
 max force / atom convergence tol.              : ignored
 convergence tolerance window                   :          3   cycles
 max. number of SCF cycles                      :        100
 number of fixed-spin iterations                :         10
 smearing scheme                                : Gaussian
 smearing width                                 : 0.2000       eV
 Fermi energy convergence tolerance             : 0.2721E-13   eV
 periodic dipole correction                     : NONE

 ************************** Density Mixing Parameters **************************
  
 density-mixing scheme                          : Pulay
 max. length of mixing history                  :         20
 charge density mixing amplitude                : 0.8000    
 cut-off energy for mixing                      :  800.0       eV

 *********************** Population Analysis Parameters ************************
  
 Population analysis with cutoff                :  3.000       A
 Population analysis output                     : summary and pdos components

 ********************* Transition State Search Parameters **********************
  
 search method                                  : LSTQST
 LSTQST protocol                                : COMPLETELSTQST   
 max. number of QST iterations                  :         60
 max. number of CG  iterations                  :         60
 max. ionic |force| tolerance                   : 0.2571       eV/A
 max. ionic |displacement| tolerance            : 0.1000E-02   A

 *******************************************************************************
  
 
                           -------------------------------
                                      Unit Cell
                           -------------------------------
        Real Lattice(A)                      Reciprocal Lattice(1/A)
     9.8800000     0.0000000     0.0000000        0.635949930   0.367165863   0.000000000
    -4.9400000     8.5563310     0.0000000        0.000000000   0.734331726   0.000000000
     0.0000000     0.0000000    20.0339000        0.000000000   0.000000000   0.313627666
 
                       Lattice parameters(A)       Cell Angles
                    a =      9.880000          alpha =   90.000000
                    b =      9.880000          beta  =   90.000000
                    c =     20.033900          gamma =  120.000000
 
                       Current cell volume =          1693.596795       A**3
                                   density =             0.228129   AMU/A**3
                                           =             0.378817     g/cm^3
 
                           -------------------------------
                                     Cell Contents
                           -------------------------------
                         Total number of ions in cell =   34
                      Total number of species in cell =    2
                        Max number of any one species =   32
 
            xxxxxxxxxxxxxxxxxxxxxxxxxxxxxxxxxxxxxxxxxxxxxxxxxxxxxxxxxxxx
            x                          Reactant                        x
            xxxxxxxxxxxxxxxxxxxxxxxxxxxxxxxxxxxxxxxxxxxxxxxxxxxxxxxxxxxx
            x  Element    Atom        Fractional coordinates of atoms  x
            x            Number           u          v          w      x
            x----------------------------------------------------------x
            x  H            1         0.396165   0.292812   0.582659   x 
            x  H            2         0.520487   0.540731   0.582699   x 
            x  C            1         0.165882   0.083874   0.496894   x 
            x  C            2        -0.000444   0.000074   0.492195   x 
            x  C            3         0.166323   0.331852   0.498893   x 
            x  C            4        -0.000370   0.249413   0.492989   x 
            x  C            5         0.166974   0.584208   0.492957   x 
            x  C            6        -0.000187   0.500049   0.492055   x 
            x  C            7         0.167307   0.835130   0.492897   x 
            x  C            8         0.000006   0.750545   0.492329   x 
            x  C            9         0.417863   0.083881   0.496820   x 
            x  C           10         0.249755  -0.000174   0.496618   x 
            x  C           11         0.412699   0.325567   0.529010   x 
            x  C           12         0.245735   0.247957   0.504283   x 
            x  C           13         0.414658   0.585750   0.504374   x 
            x  C           14         0.251236   0.501773   0.498918   x 
            x  C           15         0.416306   0.833597   0.492046   x 
            x  C           16         0.250110   0.750630   0.492214   x 
            x  C           17         0.666603   0.083012   0.492220   x 
            x  C           18         0.500410   0.000040   0.492028   x 
            x  C           19         0.665471   0.331859   0.498916   x 
            x  C           20         0.502047   0.247879   0.504338   x 
            x  C           21         0.670974   0.585679   0.504333   x 
            x  C           22         0.503986   0.508028   0.529041   x 
            x  C           23         0.666951   0.833817   0.496707   x 
            x  C           24         0.498838   0.749745   0.496888   x 
            x  C           25         0.916692   0.083101   0.492328   x 
            x  C           26         0.749396  -0.001490   0.492942   x 
            x  C           27         0.916904   0.333611   0.492048   x 
            x  C           28         0.749750   0.249446   0.492950   x 
            x  C           29         0.917077   0.584246   0.493010   x 
            x  C           30         0.750382   0.501781   0.498919   x 
            x  C           31         0.917137   0.833572   0.492220   x 
            x  C           32         0.750816   0.749757   0.496972   x 
            xxxxxxxxxxxxxxxxxxxxxxxxxxxxxxxxxxxxxxxxxxxxxxxxxxxxxxxxxxxx
 
            xxxxxxxxxxxxxxxxxxxxxxxxxxxxxxxxxxxxxxxxxxxxxxxxxxxxxxxxxxxx
            x                          Product                         x
            xxxxxxxxxxxxxxxxxxxxxxxxxxxxxxxxxxxxxxxxxxxxxxxxxxxxxxxxxxxx
            x  Element    Atom        Fractional coordinates of atoms  x
            x            Number           u          v          w      x
            x----------------------------------------------------------x
            x  H            1         0.423787   0.352983   0.675118   x 
            x  H            2         0.461790   0.440516   0.675173   x 
            x  C            1         0.166542   0.083138   0.497757   x 
            x  C            2        -0.000017  -0.000182   0.497865   x 
            x  C            3         0.166522   0.333250   0.497730   x 
            x  C            4        -0.000083   0.249787   0.497861   x 
            x  C            5         0.166551   0.583431   0.497875   x 
            x  C            6        -0.000067   0.499922   0.497909   x 
            x  C            7         0.166555   0.833439   0.497897   x 
            x  C            8        -0.000027   0.750046   0.497900   x 
            x  C            9         0.416641   0.083112   0.497756   x 
            x  C           10         0.249950  -0.000207   0.497799   x 
            x  C           11         0.416660   0.333251   0.497552   x 
            x  C           12         0.249922   0.249822   0.497639   x 
            x  C           13         0.416702   0.583458   0.497681   x 
            x  C           14         0.249935   0.499991   0.497746   x 
            x  C           15         0.416685   0.833469   0.497878   x 
            x  C           16         0.249970   0.750121   0.497895   x 
            x  C           17         0.666825   0.083160   0.497888   x 
            x  C           18         0.500106  -0.000187   0.497859   x 
            x  C           19         0.666869   0.333299   0.497730   x 
            x  C           20         0.500099   0.249833   0.497641   x 
            x  C           21         0.666866   0.583451   0.497681   x 
            x  C           22         0.500124   0.500014   0.497578   x 
            x  C           23         0.666854   0.833498   0.497833   x 
            x  C           24         0.500165   0.750181   0.497797   x 
            x  C           25         0.916834   0.083241   0.497891   x 
            x  C           26         0.750248  -0.000140   0.497903   x 
            x  C           27         0.916860   0.333353   0.497904   x 
            x  C           28         0.750239   0.249856   0.497858   x 
            x  C           29         0.916887   0.583502   0.497880   x 
            x  C           30         0.750283   0.500045   0.497748   x 
            x  C           31         0.916803   0.833451   0.497883   x 
            x  C           32         0.750244   0.750140   0.497798   x 
            xxxxxxxxxxxxxxxxxxxxxxxxxxxxxxxxxxxxxxxxxxxxxxxxxxxxxxxxxxxx
 
 
                         No user defined ionic velocities
 
                           -------------------------------
                                   Details of Species
                           -------------------------------
 
                               Mass of species in AMU
                                    H    1.0079400
                                    C   12.0107000
 
                          Electric Quadrupole Moment (Barn)
                                    H    0.0028600 Isotope  2
                                    C    0.0332700 Isotope 11
 
                          Files used for pseudopotentials:
                                    H 1|0.6|13|15|17|10(qc=8)
                                    C 1|1.2|17|20|23|20N:21L(qc=8)
 
                           -------------------------------
                              k-Points For BZ Sampling
                           -------------------------------
                       MP grid size for SCF calculation is  4  4  1
                            with an offset of   0.000  0.000  0.000
                       Number of kpoints used =   8
 
                           -------------------------------
                               Symmetry and Constraints
                           -------------------------------
 
                      Maximum deviation from symmetry =  0.00000         ANG
 
                      Number of symmetry operations   = 1
         There are no ionic constraints specified or generated for this cell
                      Point group of crystal =     1: C1, 1, 1
                      Space group of crystal =     1: P1, P 1
 
             Set iprint > 1 for details on symmetry rotations/translations
 
                         Centre of mass is NOT constrained
 
                         Number of cell constraints= 6
                         Cell constraints are:  0 0 0 0 0 0
 
                         External pressure/stress (GPa)
                          0.00000   0.00000   0.00000
                                    0.00000   0.00000
                                              0.00000
 
                                --------------------
                                  DFT-D parameters
                                --------------------
 
                          Dispersion-correction scheme : MBD*      
                        Parameter sR :   0.830000 (default)
 
        xxxxxxxxxxxxxxxxxxxxxxxxxxxxxxxxxxxxxxxxxxxxxxxxxxxxxxxxxxxxxxxxxxxx
        x              Atomic DFT-D parameters                             x
        x  Species      C6            alpha        R0                      x
        x               eV A^6        A^3          A                       x
        x------------------------------------------------------------------x
        x  H             3.8839       0.6668       1.6404   (default)      x
        x  C            27.8448       1.7782       1.8997   (default)      x
        xxxxxxxxxxxxxxxxxxxxxxxxxxxxxxxxxxxxxxxxxxxxxxxxxxxxxxxxxxxxxxxxxxxx
 
  
+---------------- MEMORY AND SCRATCH DISK ESTIMATES PER PROCESS --------------+
|                                                     Memory          Disk    |
| Baseline code, static data and system overhead      772.0 MB         0.0 MB |
| BLAS internal memory storage                          0.0 MB         0.0 MB |
| Model and support data                               37.8 MB         0.0 MB |
| Electronic energy minimisation requirements          62.0 MB         0.0 MB |
| Force calculation requirements                       12.6 MB         0.0 MB |
|                                               ----------------------------- |
| Approx. total storage required per process          871.7 MB         0.0 MB |
|                                                                             |
| Requirements will fluctuate during execution and may exceed these estimates |
+-----------------------------------------------------------------------------+
Calculating approximate eigenstates for fixed initial Hamiltonian
Cut-off for approx. calculation is  119.774 eV
Improving approx. states at cut-off of  462.594 eV
Resetting cut-off to  800.000 eV
Calculating total energy with cut-off of  800.000 eV.
------------------------------------------------------------------------ <-- SCF
SCF loop      Energy           Fermi           Energy gain       Timer   <-- SCF
                               energy          per atom          (sec)   <-- SCF
------------------------------------------------------------------------ <-- SCF
Initial  -4.75347018E+003  0.00000000E+000                        10.39  <-- SCF
      1  -5.21615296E+003 -5.59269655E+000   1.36083170E+001      15.92  <-- SCF
      2  -5.21638696E+003 -5.59388232E+000   6.88219942E-003      21.88  <-- SCF
      3  -5.20310813E+003 -4.27906130E+000  -3.90553613E-001      28.18  <-- SCF
      4  -5.20230771E+003 -3.77079733E+000  -2.35418025E-002      34.56  <-- SCF
      5  -5.20205288E+003 -3.46886181E+000  -7.49494558E-003      41.12  <-- SCF
      6  -5.20196173E+003 -3.25384711E+000  -2.68106662E-003      47.47  <-- SCF
      7  -5.20188898E+003 -3.01339175E+000  -2.13969223E-003      53.62  <-- SCF
      8  -5.20183802E+003 -2.86182435E+000  -1.49886520E-003      59.74  <-- SCF
      9  -5.20183987E+003 -2.70465138E+000   5.44261616E-005      65.87  <-- SCF
     10  -5.20185679E+003 -2.60587953E+000   4.97610463E-004      71.89  <-- SCF
     11  -5.20186278E+003 -2.52679308E+000   1.76247786E-004      77.65  <-- SCF
     12  -5.20186099E+003 -2.44422799E+000  -5.26676003E-005      83.36  <-- SCF
     13  -5.20185822E+003 -2.36446788E+000  -8.14763521E-005      88.63  <-- SCF
     14  -5.20185759E+003 -2.30937192E+000  -1.84538385E-005      94.02  <-- SCF
     15  -5.20186226E+003 -2.25594213E+000   1.37345984E-004      99.32  <-- SCF
     16  -5.20186894E+003 -2.23404635E+000   1.96545261E-004     104.36  <-- SCF
     17  -5.20187251E+003 -2.22994707E+000   1.05050979E-004     109.25  <-- SCF
     18  -5.20187333E+003 -2.22979935E+000   2.40525198E-005     114.12  <-- SCF
     19  -5.20187348E+003 -2.22974137E+000   4.21412674E-006     118.83  <-- SCF
     20  -5.20187351E+003 -2.22962535E+000   1.16839141E-006     123.86  <-- SCF
     21  -5.20187357E+003 -2.22912234E+000   1.56364907E-006     128.81  <-- SCF
     22  -5.20187361E+003 -2.22867159E+000   1.17492784E-006     133.81  <-- SCF
     23  -5.20187365E+003 -2.22858241E+000   1.36900549E-006     138.61  <-- SCF
     24  -5.20187369E+003 -2.22855331E+000   1.08287215E-006     143.58  <-- SCF
     25  -5.20187371E+003 -2.22842658E+000   6.49271359E-007     148.48  <-- SCF
     26  -5.20187372E+003 -2.22840189E+000   1.63278918E-007     153.43  <-- SCF
------------------------------------------------------------------------ <-- SCF
 
Final energy, E             =  -5201.865263242     eV
Final free energy (E-TS)    =  -5201.873718949     eV
(energies not corrected for finite basis set)
 
NB est. 0K energy (E-0.5TS)      =  -5201.869491095     eV
 
 WARNING: Your unit cell might be too small to get accurate results for van der Waals
(SEDC) Total Energy Correction : -0.277706E+01 eV

Dispersion corrected final energy*, Ecor          =  -5204.642325422     eV
Dispersion corrected final free energy* (Ecor-TS) =  -5204.650781129     eV
NB dispersion corrected est. 0K energy* (Ecor-0.5TS) =  -5204.646553276     eV

Writing analysis data to 4x4.castep_bin

Writing model to 4x4.check
++++++++++++++++++++++++++++++++++++++++++++++++++++++++++++++++++++++++++++++++
+++++++++++++++++++++++ Starting Transition State Search +++++++++++++++++++++++
++++++++++++++++++++++++++++++++++++++++++++++++++++++++++++++++++++++++++++++++
 
++++++++++++++++++++++++++++++++++++++++++++++++++++++++++++++++++++++++++++++++
+++++++++++++++++++++++ Linear synchronous transit method ++++++++++++++++++++++
++++++++++++++++++++++++++++++++++++++++++++++++++++++++++++++++++++++++++++++++
 
 +++++++++++++++++++++++++++++++++++++++++++++++++++++++
 Difference vector: Fractional components 
 +++++++++++++++++++++++++++++++++++++++++++++++++++++++
    0.027622351    0.060170811    0.092458888
   -0.058696861   -0.100214588    0.092473527
    0.000660152   -0.000735743    0.000863540
    0.000427100   -0.000255899    0.005669120
    0.000199233    0.001398258   -0.001162771
    0.000286689    0.000373817    0.004872301
   -0.000423645   -0.000777150    0.004918365
    0.000119881   -0.000126667    0.005854100
   -0.000752323   -0.001691530    0.005000267
   -0.000033574   -0.000499075    0.005571175
   -0.001222211   -0.000768857    0.000936854
    0.000195650   -0.000032946    0.001180925
    0.003960509    0.007684042   -0.031457561
    0.004187530    0.001864051   -0.006643902
    0.002044324   -0.002292548   -0.006693110
   -0.001301267   -0.001782152   -0.001172017
    0.000379179   -0.000127478    0.005831614
   -0.000139679   -0.000508783    0.005681120
    0.000221627    0.000147668    0.005667880
   -0.000304452   -0.000227250    0.005830744
    0.001398077    0.001439975   -0.001186562
   -0.001947875    0.001954372   -0.006696122
   -0.004107530   -0.002227458   -0.006651800
   -0.003861253   -0.008014035   -0.031462880
   -0.000096950   -0.000318905    0.001125789
    0.001326846    0.000435611    0.000908800
    0.000141768    0.000139993    0.005562929
    0.000851678    0.001350422    0.004960593
   -0.000044002   -0.000258077    0.005856137
    0.000489258    0.000409761    0.004907913
   -0.000189699   -0.000743524    0.004870237
   -0.000098970   -0.001736573   -0.001171617
   -0.000334313   -0.000120564    0.005663231
   -0.000571990    0.000383528    0.000826413
 +++++++++++++++++++++++++++++++++++++++++++++++++++++++
 
 +++++++++++++++++++++++++++++++++++++++++++++++++++++++
 Periodic cell setup complete
 +++++++++++++++++++++++++++++++++++++++++++++++++++++++
 
------------------------------------------------------------------------ <-- SCF
SCF loop      Energy           Fermi           Energy gain       Timer   <-- SCF
                               energy          per atom          (sec)   <-- SCF
------------------------------------------------------------------------ <-- SCF
Initial  -5.20186521E+003  0.00000000E+000                       159.07  <-- SCF
      1  -5.20187372E+003 -2.22840195E+000   2.50233148E-004     163.38  <-- SCF
      2  -5.20187372E+003 -2.22840195E+000   2.18370101E-011     168.12  <-- SCF
      3  -5.20187372E+003 -2.22840060E+000   2.90900137E-008     172.55  <-- SCF
      4  -5.20187372E+003 -2.22839967E+000   2.77598669E-008     177.37  <-- SCF
------------------------------------------------------------------------ <-- SCF
 
Final energy, E             =  -5201.865269048     eV
Final free energy (E-TS)    =  -5201.873724819     eV
(energies not corrected for finite basis set)
 
NB est. 0K energy (E-0.5TS)      =  -5201.869496933     eV
 

Dispersion corrected final energy*, Ecor          =  -5204.642331228     eV
Dispersion corrected final free energy* (Ecor-TS) =  -5204.650786999     eV
NB dispersion corrected est. 0K energy* (Ecor-0.5TS) =  -5204.646559113     eV
 +++++++++++++++++++++++++++++++++++++++++++++++++++++++
 Reactant                      
 Path coordinate:                         0.00000
 Energy:                              -5204.65079 eV                            
 +++++++++++++++++++++++++++++++++++++++++++++++++++++++
 
            ++++++++++++++++++++++++++++++++++++++++++++++++++++++++++++++++++++
                             Coordinates: Fractional components
            ++++++++++++++++++++++++++++++++++++++++++++++++++++++++++++++++++++
            +  Element    Atom                                                 +
            +            Number           x          y          z              +
            ++++++++++++++++++++++++++++++++++++++++++++++++++++++++++++++++++++
            +H             1          0.396165   0.292812   0.582659           +
            +H             2          0.520487   0.540731   0.582699           +
            +C             1          0.165882   0.083874   0.496894           +
            +C             2         -0.000444   0.000074   0.492195           +
            +C             3          0.166323   0.331852   0.498893           +
            +C             4         -0.000370   0.249413   0.492989           +
            +C             5          0.166974   0.584208   0.492957           +
            +C             6         -0.000187   0.500049   0.492055           +
            +C             7          0.167307   0.835130   0.492897           +
            +C             8          0.000006   0.750545   0.492329           +
            +C             9          0.417863   0.083881   0.496820           +
            +C            10          0.249755  -0.000174   0.496618           +
            +C            11          0.412699   0.325567   0.529010           +
            +C            12          0.245735   0.247957   0.504283           +
            +C            13          0.414658   0.585750   0.504374           +
            +C            14          0.251236   0.501773   0.498918           +
            +C            15          0.416306   0.833597   0.492046           +
            +C            16          0.250110   0.750630   0.492214           +
            +C            17          0.666603   0.083012   0.492220           +
            +C            18          0.500410   0.000040   0.492028           +
            +C            19          0.665471   0.331859   0.498916           +
            +C            20          0.502047   0.247879   0.504338           +
            +C            21          0.670974   0.585679   0.504333           +
            +C            22          0.503986   0.508028   0.529041           +
            +C            23          0.666951   0.833817   0.496707           +
            +C            24          0.498838   0.749745   0.496888           +
            +C            25          0.916692   0.083101   0.492328           +
            +C            26          0.749396  -0.001490   0.492942           +
            +C            27          0.916904   0.333611   0.492048           +
            +C            28          0.749750   0.249446   0.492950           +
            +C            29          0.917077   0.584246   0.493010           +
            +C            30          0.750382   0.501781   0.498919           +
            +C            31          0.917137   0.833572   0.492220           +
            +C            32          0.750816   0.749757   0.496972           +
            ++++++++++++++++++++++++++++++++++++++++++++++++++++++++++++++++++++
                           Forces: Cartesian components: eV/A                          
            ++++++++++++++++++++++++++++++++++++++++++++++++++++++++++++++++++++
            +  Element    Atom                                                 +
            +            Number           x          y          z              +
            ++++++++++++++++++++++++++++++++++++++++++++++++++++++++++++++++++++
            +H             1          0.003561  -0.002772   0.000724           +
            +H             2         -0.003807   0.000809  -0.000984           +
            +C             1         -0.000696   0.005553   0.001754           +
            +C             2          0.002560  -0.004831  -0.003154           +
            +C             3          0.002397  -0.003596  -0.000162           +
            +C             4          0.001897  -0.002918  -0.000339           +
            +C             5         -0.003022  -0.003306   0.000975           +
            +C             6          0.000191   0.003014  -0.001681           +
            +C             7         -0.002567  -0.000413  -0.001763           +
            +C             8          0.002388   0.001734  -0.005076           +
            +C             9         -0.002845   0.003160   0.002542           +
            +C            10          0.003122  -0.001791   0.008628           +
            +C            11         -0.000119   0.000312   0.001676           +
            +C            12         -0.003210  -0.002933   0.002192           +
            +C            13         -0.005304  -0.003128   0.000232           +
            +C            14          0.002145   0.005916   0.000508           +
            +C            15         -0.004211  -0.000889   0.000389           +
            +C            16          0.001778   0.002989  -0.001738           +
            +C            17         -0.001737   0.000287  -0.001180           +
            +C            18          0.003220  -0.000294   0.001002           +
            +C            19         -0.001471  -0.003431  -0.000646           +
            +C            20          0.004806  -0.000633  -0.001317           +
            +C            21          0.002859  -0.001956   0.003596           +
            +C            22         -0.000176   0.003129   0.001151           +
            +C            23         -0.003366  -0.000558   0.005620           +
            +C            24          0.003017   0.003255   0.000305           +
            +C            25         -0.002490   0.001569  -0.004579           +
            +C            26          0.003423  -0.000648  -0.002686           +
            +C            27         -0.000210  -0.002270  -0.001205           +
            +C            28          0.000239  -0.001966   0.001602           +
            +C            29          0.000691  -0.003242  -0.001145           +
            +C            30         -0.003442   0.006310  -0.000076           +
            +C            31         -0.001143   0.002497  -0.004173           +
            +C            32          0.001522   0.001041  -0.000995           +
            ++++++++++++++++++++++++++++++++++++++++++++++++++++++++++++++++++++
 
------------------------------------------------------------------------ <-- SCF
SCF loop      Energy           Fermi           Energy gain       Timer   <-- SCF
                               energy          per atom          (sec)   <-- SCF
------------------------------------------------------------------------ <-- SCF
Initial  -5.02813199E+003  0.00000000E+000                       179.05  <-- SCF
      1  -5.16419692E+003 -1.44564799E+000   4.00190962E+000     184.25  <-- SCF
      2  -5.20618035E+003 -2.28896282E+000   1.23480693E+000     189.19  <-- SCF
      3  -5.20359919E+003 -2.26534675E+000  -7.59165655E-002     195.34  <-- SCF
      4  -5.20366580E+003 -2.28512125E+000   1.95899540E-003     202.58  <-- SCF
      5  -5.20367092E+003 -2.29784144E+000   1.50674715E-004     209.08  <-- SCF
      6  -5.20366531E+003 -2.31070970E+000  -1.64900955E-004     215.25  <-- SCF
      7  -5.20366431E+003 -2.32456298E+000  -2.94212977E-005     220.98  <-- SCF
      8  -5.20366529E+003 -2.34080109E+000   2.86017025E-005     226.54  <-- SCF
      9  -5.20366726E+003 -2.35746788E+000   5.82203079E-005     231.73  <-- SCF
     10  -5.20366784E+003 -2.36670212E+000   1.70533255E-005     237.03  <-- SCF
     11  -5.20366770E+003 -2.37710372E+000  -4.33928955E-006     242.27  <-- SCF
     12  -5.20366731E+003 -2.38626478E+000  -1.14153383E-005     247.45  <-- SCF
     13  -5.20366755E+003 -2.39310287E+000   7.10366452E-006     252.70  <-- SCF
     14  -5.20366810E+003 -2.39676292E+000   1.60308268E-005     257.66  <-- SCF
     15  -5.20366850E+003 -2.39866183E+000   1.18568326E-005     262.50  <-- SCF
     16  -5.20366895E+003 -2.39932069E+000   1.32839592E-005     267.33  <-- SCF
     17  -5.20366915E+003 -2.39922842E+000   5.98203773E-006     272.18  <-- SCF
     18  -5.20366925E+003 -2.39919475E+000   2.71194520E-006     277.12  <-- SCF
     19  -5.20366929E+003 -2.39930749E+000   1.28705479E-006     282.03  <-- SCF
     20  -5.20366931E+003 -2.39942281E+000   5.65823499E-007     286.98  <-- SCF
     21  -5.20366931E+003 -2.39971072E+000   6.54587579E-008     291.90  <-- SCF
------------------------------------------------------------------------ <-- SCF
 
Final energy, E             =  -5203.665490985     eV
Final free energy (E-TS)    =  -5203.669311100     eV
(energies not corrected for finite basis set)
 
NB est. 0K energy (E-0.5TS)      =  -5203.667401042     eV
 
(SEDC) Total Energy Correction : -0.271773E+01 eV

Dispersion corrected final energy*, Ecor          =  -5206.383220135     eV
Dispersion corrected final free energy* (Ecor-TS) =  -5206.387040251     eV
NB dispersion corrected est. 0K energy* (Ecor-0.5TS) =  -5206.385130193     eV
 +++++++++++++++++++++++++++++++++++++++++++++++++++++++
 Product                       
 Path coordinate:                         1.00000
 Energy:                              -5206.38704 eV                            
 +++++++++++++++++++++++++++++++++++++++++++++++++++++++
 
            ++++++++++++++++++++++++++++++++++++++++++++++++++++++++++++++++++++
                             Coordinates: Fractional components
            ++++++++++++++++++++++++++++++++++++++++++++++++++++++++++++++++++++
            +  Element    Atom                                                 +
            +            Number           x          y          z              +
            ++++++++++++++++++++++++++++++++++++++++++++++++++++++++++++++++++++
            +H             1          0.423787   0.352983   0.675118           +
            +H             2          0.461790   0.440516   0.675173           +
            +C             1          0.166542   0.083138   0.497757           +
            +C             2         -0.000017  -0.000182   0.497865           +
            +C             3          0.166522   0.333250   0.497730           +
            +C             4         -0.000083   0.249787   0.497861           +
            +C             5          0.166551   0.583431   0.497875           +
            +C             6         -0.000067   0.499922   0.497909           +
            +C             7          0.166555   0.833439   0.497897           +
            +C             8         -0.000027   0.750046   0.497900           +
            +C             9          0.416641   0.083112   0.497756           +
            +C            10          0.249950  -0.000207   0.497799           +
            +C            11          0.416660   0.333251   0.497552           +
            +C            12          0.249922   0.249822   0.497639           +
            +C            13          0.416702   0.583458   0.497681           +
            +C            14          0.249935   0.499991   0.497746           +
            +C            15          0.416685   0.833469   0.497878           +
            +C            16          0.249970   0.750121   0.497895           +
            +C            17          0.666825   0.083160   0.497888           +
            +C            18          0.500106  -0.000187   0.497859           +
            +C            19          0.666869   0.333299   0.497730           +
            +C            20          0.500099   0.249833   0.497641           +
            +C            21          0.666866   0.583451   0.497681           +
            +C            22          0.500124   0.500014   0.497578           +
            +C            23          0.666854   0.833498   0.497833           +
            +C            24          0.500165   0.750181   0.497797           +
            +C            25          0.916834   0.083241   0.497891           +
            +C            26          0.750248  -0.000140   0.497903           +
            +C            27          0.916860   0.333353   0.497904           +
            +C            28          0.750239   0.249856   0.497858           +
            +C            29          0.916887   0.583502   0.497880           +
            +C            30          0.750283   0.500045   0.497748           +
            +C            31          0.916803   0.833451   0.497883           +
            +C            32          0.750244   0.750140   0.497798           +
            ++++++++++++++++++++++++++++++++++++++++++++++++++++++++++++++++++++
                           Forces: Cartesian components: eV/A                          
            ++++++++++++++++++++++++++++++++++++++++++++++++++++++++++++++++++++
            +  Element    Atom                                                 +
            +            Number           x          y          z              +
            ++++++++++++++++++++++++++++++++++++++++++++++++++++++++++++++++++++
            +H             1          0.000117  -0.000378   0.007912           +
            +H             2         -0.000121  -0.000307   0.007198           +
            +C             1          0.002399   0.001927   0.001336           +
            +C             2         -0.001281   0.001626  -0.001857           +
            +C             3          0.001484  -0.001421   0.001990           +
            +C             4         -0.001717   0.002315  -0.000785           +
            +C             5          0.002787  -0.005289  -0.001624           +
            +C             6         -0.000804   0.004741  -0.002454           +
            +C             7          0.004667  -0.004896  -0.001400           +
            +C             8         -0.000906   0.001799  -0.001048           +
            +C             9          0.000447   0.000770   0.001213           +
            +C            10         -0.001385   0.001422  -0.000411           +
            +C            11          0.001549   0.005694  -0.003601           +
            +C            12         -0.001010  -0.001587   0.002562           +
            +C            13          0.000148   0.000676   0.001666           +
            +C            14         -0.002403   0.000824   0.002116           +
            +C            15          0.001683  -0.002254  -0.003677           +
            +C            16         -0.000132   0.004614  -0.000687           +
            +C            17         -0.002782  -0.001567  -0.002422           +
            +C            18          0.000689   0.002628  -0.001440           +
            +C            19         -0.001229   0.000694   0.002329           +
            +C            20          0.000907  -0.002314   0.001958           +
            +C            21          0.000152   0.004449   0.001619           +
            +C            22         -0.001617  -0.003034  -0.000705           +
            +C            23         -0.001184  -0.000263  -0.000906           +
            +C            24         -0.001742  -0.001311   0.000876           +
            +C            25         -0.002719  -0.001698  -0.002438           +
            +C            26         -0.000985   0.000432  -0.000400           +
            +C            27         -0.000012  -0.002951  -0.003690           +
            +C            28          0.001566   0.002776  -0.000344           +
            +C            29          0.001916  -0.003267  -0.002164           +
            +C            30         -0.000782  -0.002296   0.001854           +
            +C            31          0.002062   0.000069  -0.003880           +
            +C            32          0.000237  -0.002622   0.001304           +
            ++++++++++++++++++++++++++++++++++++++++++++++++++++++++++++++++++++
 
 +++++++++++++++++++++++++++++++++++++++++++++++++++++++
 LST maximum bracketing from reactant
 +++++++++++++++++++++++++++++++++++++++++++++++++++++++
 
------------------------------------------------------------------------ <-- SCF
SCF loop      Energy           Fermi           Energy gain       Timer   <-- SCF
                               energy          per atom          (sec)   <-- SCF
------------------------------------------------------------------------ <-- SCF
Initial  -5.04384727E+003  0.00000000E+000                       296.89  <-- SCF
      1  -5.17383638E+003 -1.92000608E+000   3.82320900E+000     302.09  <-- SCF
      2  -5.20036265E+003 -2.66795418E+000   7.80184335E-001     306.92  <-- SCF
      3  -5.19890519E+003 -2.50421189E+000  -4.28664452E-002     313.09  <-- SCF
      4  -5.19883070E+003 -2.60066954E+000  -2.19086961E-003     319.35  <-- SCF
      5  -5.19883914E+003 -2.57524852E+000   2.48372597E-004     325.69  <-- SCF
      6  -5.19885398E+003 -2.58108217E+000   4.36360294E-004     332.64  <-- SCF
      7  -5.19885639E+003 -2.58248290E+000   7.08726241E-005     338.83  <-- SCF
      8  -5.19885858E+003 -2.58411213E+000   6.43891292E-005     344.20  <-- SCF
      9  -5.19885938E+003 -2.58680529E+000   2.35263504E-005     349.37  <-- SCF
     10  -5.19885999E+003 -2.58834792E+000   1.80177805E-005     354.42  <-- SCF
     11  -5.19886042E+003 -2.58977027E+000   1.27233954E-005     359.45  <-- SCF
     12  -5.19886068E+003 -2.59086016E+000   7.47569374E-006     364.41  <-- SCF
     13  -5.19886077E+003 -2.59176633E+000   2.55642565E-006     369.27  <-- SCF
     14  -5.19886077E+003 -2.59276888E+000   4.69262106E-008     374.22  <-- SCF
     15  -5.19886076E+003 -2.59424364E+000  -2.53507829E-007     379.21  <-- SCF
------------------------------------------------------------------------ <-- SCF
 
Final energy, E             =  -5198.837802456     eV
Final free energy (E-TS)    =  -5198.860758300     eV
(energies not corrected for finite basis set)
 
NB est. 0K energy (E-0.5TS)      =  -5198.849280378     eV
 
(SEDC) Total Energy Correction : -0.279044E+01 eV

Dispersion corrected final energy*, Ecor          =  -5201.628239061     eV
Dispersion corrected final free energy* (Ecor-TS) =  -5201.651194905     eV
NB dispersion corrected est. 0K energy* (Ecor-0.5TS) =  -5201.639716983     eV
 +++++++++++++++++++++++++++++++++++++++++++++++++++++++
 Path coordinate:                         0.22123
 Energy:                              -5201.65119 eV                            
 +++++++++++++++++++++++++++++++++++++++++++++++++++++++
 
------------------------------------------------------------------------ <-- SCF
SCF loop      Energy           Fermi           Energy gain       Timer   <-- SCF
                               energy          per atom          (sec)   <-- SCF
------------------------------------------------------------------------ <-- SCF
Initial  -5.17281106E+003  0.00000000E+000                       383.99  <-- SCF
      1  -5.19644881E+003 -2.29784067E+000   6.95227951E-001     388.69  <-- SCF
      2  -5.19927529E+003 -2.56150934E+000   8.31319267E-002     394.52  <-- SCF
      3  -5.19897003E+003 -2.57407258E+000  -8.97837311E-003     400.60  <-- SCF
      4  -5.19896416E+003 -2.57650331E+000  -1.72541587E-004     407.76  <-- SCF
      5  -5.19896484E+003 -2.58048749E+000   1.99910070E-005     414.01  <-- SCF
      6  -5.19896608E+003 -2.58573761E+000   3.62412775E-005     420.08  <-- SCF
      7  -5.19896799E+003 -2.59291891E+000   5.62057674E-005     425.36  <-- SCF
      8  -5.19896912E+003 -2.59958200E+000   3.34554386E-005     430.59  <-- SCF
      9  -5.19897011E+003 -2.60964994E+000   2.88763689E-005     435.77  <-- SCF
     10  -5.19897028E+003 -2.61737100E+000   5.25481163E-006     441.01  <-- SCF
     11  -5.19897007E+003 -2.62753023E+000  -6.36086727E-006     446.01  <-- SCF
     12  -5.19896983E+003 -2.63836935E+000  -6.87411328E-006     451.20  <-- SCF
     13  -5.19897008E+003 -2.64679894E+000   7.16276802E-006     456.30  <-- SCF
     14  -5.19897033E+003 -2.65048702E+000   7.45943163E-006     461.39  <-- SCF
     15  -5.19897074E+003 -2.65249153E+000   1.19169462E-005     466.39  <-- SCF
     16  -5.19897094E+003 -2.65320707E+000   5.94592168E-006     471.36  <-- SCF
     17  -5.19897111E+003 -2.65335797E+000   5.11278422E-006     476.29  <-- SCF
     18  -5.19897118E+003 -2.65357927E+000   2.08120029E-006     481.26  <-- SCF
     19  -5.19897123E+003 -2.65384555E+000   1.30408672E-006     486.18  <-- SCF
     20  -5.19897124E+003 -2.65403291E+000   3.10532246E-007     491.14  <-- SCF
     21  -5.19897124E+003 -2.65444731E+000  -6.83351470E-008     496.02  <-- SCF
------------------------------------------------------------------------ <-- SCF
 
Final energy, E             =  -5198.958792436     eV
Final free energy (E-TS)    =  -5198.971236389     eV
(energies not corrected for finite basis set)
 
NB est. 0K energy (E-0.5TS)      =  -5198.965014412     eV
 
(SEDC) Total Energy Correction : -0.278646E+01 eV

Dispersion corrected final energy*, Ecor          =  -5201.745256212     eV
Dispersion corrected final free energy* (Ecor-TS) =  -5201.757700165     eV
NB dispersion corrected est. 0K energy* (Ecor-0.5TS) =  -5201.751478188     eV
 +++++++++++++++++++++++++++++++++++++++++++++++++++++++
 Path coordinate:                         0.42880
 Energy:                              -5201.75770 eV                            
 +++++++++++++++++++++++++++++++++++++++++++++++++++++++
 
 +++++++++++++++++++++++++++++++++++++++++++++++++++++++
 LST maximum bracketing from reactant successful
 Cumulative number of energy/gradient calls :     4
 +++++++++++++++++++++++++++++++++++++++++++++++++++++++
 
 +++++++++++++++++++++++++++++++++++++++++++++++++++++++
 Commencing maximum search
 +++++++++++++++++++++++++++++++++++++++++++++++++++++++
 
------------------------------------------------------------------------ <-- SCF
SCF loop      Energy           Fermi           Energy gain       Timer   <-- SCF
                               energy          per atom          (sec)   <-- SCF
------------------------------------------------------------------------ <-- SCF
Initial  -5.16395787E+003  0.00000000E+000                       500.95  <-- SCF
      1  -5.19260153E+003 -2.02189450E+000   8.42460711E-001     505.74  <-- SCF
      2  -5.20074897E+003 -2.62213976E+000   2.39630615E-001     511.47  <-- SCF
      3  -5.20029352E+003 -2.53313381E+000  -1.33955783E-002     517.82  <-- SCF
      4  -5.20027012E+003 -2.51718210E+000  -6.88240608E-004     524.06  <-- SCF
      5  -5.20026788E+003 -2.49846486E+000  -6.60928872E-005     530.41  <-- SCF
      6  -5.20026393E+003 -2.48019492E+000  -1.15948866E-004     536.78  <-- SCF
      7  -5.20026214E+003 -2.46693870E+000  -5.28826824E-005     543.14  <-- SCF
      8  -5.20026056E+003 -2.45091456E+000  -4.62768102E-005     548.81  <-- SCF
      9  -5.20026092E+003 -2.43589845E+000   1.03586185E-005     554.25  <-- SCF
     10  -5.20026036E+003 -2.41986984E+000  -1.63065876E-005     559.75  <-- SCF
     11  -5.20026113E+003 -2.40139566E+000   2.27359574E-005     565.22  <-- SCF
     12  -5.20026355E+003 -2.38835106E+000   7.09969542E-005     570.59  <-- SCF
     13  -5.20026532E+003 -2.37863414E+000   5.20352159E-005     575.98  <-- SCF
     14  -5.20026651E+003 -2.37331725E+000   3.51819269E-005     581.04  <-- SCF
     15  -5.20026761E+003 -2.37076203E+000   3.22723364E-005     585.92  <-- SCF
     16  -5.20026826E+003 -2.37043471E+000   1.90836382E-005     590.85  <-- SCF
     17  -5.20026855E+003 -2.37008490E+000   8.52054782E-006     595.67  <-- SCF
     18  -5.20026872E+003 -2.36972168E+000   4.95873849E-006     600.68  <-- SCF
     19  -5.20026881E+003 -2.36957426E+000   2.67112894E-006     605.66  <-- SCF
     20  -5.20026886E+003 -2.36921333E+000   1.53900000E-006     610.68  <-- SCF
     21  -5.20026889E+003 -2.36838760E+000   8.11042477E-007     615.61  <-- SCF
     22  -5.20026892E+003 -2.36738877E+000   7.82179818E-007     620.57  <-- SCF
     23  -5.20026894E+003 -2.36640649E+000   8.19297663E-007     625.43  <-- SCF
     24  -5.20026896E+003 -2.36589485E+000   4.82445359E-007     630.29  <-- SCF
     25  -5.20026897E+003 -2.36561880E+000   2.89562848E-007     635.12  <-- SCF
------------------------------------------------------------------------ <-- SCF
 
Final energy, E             =  -5200.256977121     eV
Final free energy (E-TS)    =  -5200.268969267     eV
(energies not corrected for finite basis set)
 
NB est. 0K energy (E-0.5TS)      =  -5200.262973194     eV
 
(SEDC) Total Energy Correction : -0.278545E+01 eV

Dispersion corrected final energy*, Ecor          =  -5203.042427066     eV
Dispersion corrected final free energy* (Ecor-TS) =  -5203.054419213     eV
NB dispersion corrected est. 0K energy* (Ecor-0.5TS) =  -5203.048423140     eV
 +++++++++++++++++++++++++++++++++++++++++++++++++++++++
 Path coordinate:                         0.13816
 Energy:                              -5203.05442 eV                            
 +++++++++++++++++++++++++++++++++++++++++++++++++++++++
 
------------------------------------------------------------------------ <-- SCF
SCF loop      Energy           Fermi           Energy gain       Timer   <-- SCF
                               energy          per atom          (sec)   <-- SCF
------------------------------------------------------------------------ <-- SCF
Initial  -5.17769241E+003  0.00000000E+000                       639.77  <-- SCF
      1  -5.19692995E+003 -2.48705619E+000   5.65810026E-001     644.45  <-- SCF
      2  -5.19860559E+003 -2.77564407E+000   4.92832675E-002     650.72  <-- SCF
      3  -5.19817365E+003 -2.65993555E+000  -1.27039675E-002     656.74  <-- SCF
      4  -5.19817328E+003 -2.70101754E+000  -1.09105941E-005     663.84  <-- SCF
      5  -5.19817227E+003 -2.68909198E+000  -2.97676226E-005     670.25  <-- SCF
      6  -5.19817122E+003 -2.69534471E+000  -3.07718911E-005     676.44  <-- SCF
      7  -5.19817477E+003 -2.71185817E+000   1.04430072E-004     682.58  <-- SCF
      8  -5.19817746E+003 -2.72692646E+000   7.91800151E-005     688.50  <-- SCF
      9  -5.19817825E+003 -2.74190575E+000   2.30377258E-005     693.95  <-- SCF
     10  -5.19817761E+003 -2.76200121E+000  -1.88143542E-005     699.40  <-- SCF
     11  -5.19817638E+003 -2.77852330E+000  -3.59844045E-005     704.71  <-- SCF
     12  -5.19817577E+003 -2.79629385E+000  -1.82136398E-005     710.11  <-- SCF
     13  -5.19817588E+003 -2.80630420E+000   3.30538407E-006     715.22  <-- SCF
     14  -5.19817664E+003 -2.81206588E+000   2.24384786E-005     720.26  <-- SCF
     15  -5.19817739E+003 -2.81422758E+000   2.20435455E-005     725.21  <-- SCF
     16  -5.19817825E+003 -2.81513688E+000   2.51478775E-005     730.14  <-- SCF
     17  -5.19817860E+003 -2.81586658E+000   1.04764272E-005     735.10  <-- SCF
     18  -5.19817884E+003 -2.81637212E+000   7.07024188E-006     740.07  <-- SCF
     19  -5.19817891E+003 -2.81659157E+000   2.02030460E-006     745.07  <-- SCF
     20  -5.19817892E+003 -2.81718206E+000   4.01108001E-007     749.96  <-- SCF
     21  -5.19817892E+003 -2.81825252E+000  -9.62276737E-008     754.88  <-- SCF
------------------------------------------------------------------------ <-- SCF
 
Final energy, E             =  -5198.138437470     eV
Final free energy (E-TS)    =  -5198.178920877     eV
(energies not corrected for finite basis set)
 
NB est. 0K energy (E-0.5TS)      =  -5198.158679174     eV
 
(SEDC) Total Energy Correction : -0.279787E+01 eV

Dispersion corrected final energy*, Ecor          =  -5200.936309561     eV
Dispersion corrected final free energy* (Ecor-TS) =  -5200.976792967     eV
NB dispersion corrected est. 0K energy* (Ecor-0.5TS) =  -5200.956551264     eV
 +++++++++++++++++++++++++++++++++++++++++++++++++++++++
 Path coordinate:                         0.32135
 Energy:                              -5200.97679 eV                            
 +++++++++++++++++++++++++++++++++++++++++++++++++++++++
 
------------------------------------------------------------------------ <-- SCF
SCF loop      Energy           Fermi           Energy gain       Timer   <-- SCF
                               energy          per atom          (sec)   <-- SCF
------------------------------------------------------------------------ <-- SCF
Initial  -5.19494950E+003  0.00000000E+000                       759.91  <-- SCF
      1  -5.19815838E+003 -2.81362148E+000   9.43786500E-002     764.74  <-- SCF
      2  -5.19819416E+003 -2.81409521E+000   1.05245221E-003     771.78  <-- SCF
      3  -5.19818481E+003 -2.80459005E+000  -2.75010807E-004     777.91  <-- SCF
      4  -5.19818623E+003 -2.81117210E+000   4.18614551E-005     784.70  <-- SCF
      5  -5.19818545E+003 -2.81018027E+000  -2.30813028E-005     789.86  <-- SCF
      6  -5.19818553E+003 -2.80904522E+000   2.54030416E-006     794.75  <-- SCF
      7  -5.19818554E+003 -2.80987042E+000   6.31876178E-008     799.67  <-- SCF
      8  -5.19818554E+003 -2.81016825E+000   7.42523171E-008     804.52  <-- SCF
------------------------------------------------------------------------ <-- SCF
 
Final energy, E             =  -5198.143644666     eV
Final free energy (E-TS)    =  -5198.185538174     eV
(energies not corrected for finite basis set)
 
NB est. 0K energy (E-0.5TS)      =  -5198.164591420     eV
 
(SEDC) Total Energy Correction : -0.279560E+01 eV

Dispersion corrected final energy*, Ecor          =  -5200.939241371     eV
Dispersion corrected final free energy* (Ecor-TS) =  -5200.981134879     eV
NB dispersion corrected est. 0K energy* (Ecor-0.5TS) =  -5200.960188125     eV
 +++++++++++++++++++++++++++++++++++++++++++++++++++++++
 Path coordinate:                         0.32344
 Energy:                              -5200.98113 eV                            
 +++++++++++++++++++++++++++++++++++++++++++++++++++++++
 
------------------------------------------------------------------------ <-- SCF
SCF loop      Energy           Fermi           Energy gain       Timer   <-- SCF
                               energy          per atom          (sec)   <-- SCF
------------------------------------------------------------------------ <-- SCF
Initial  -5.19788334E+003  0.00000000E+000                       809.45  <-- SCF
      1  -5.19814849E+003 -2.81446173E+000   7.79857218E-003     814.14  <-- SCF
      2  -5.19815190E+003 -2.81469741E+000   1.00298466E-004     821.12  <-- SCF
      3  -5.19814225E+003 -2.79878090E+000  -2.83755977E-004     827.22  <-- SCF
      4  -5.19814160E+003 -2.80433498E+000  -1.93340028E-005     833.34  <-- SCF
      5  -5.19814144E+003 -2.80277549E+000  -4.52209881E-006     838.78  <-- SCF
      6  -5.19814132E+003 -2.80208435E+000  -3.77260760E-006     843.79  <-- SCF
      7  -5.19814124E+003 -2.80113845E+000  -2.32777280E-006     848.78  <-- SCF
      8  -5.19814119E+003 -2.80017528E+000  -1.46807876E-006     853.78  <-- SCF
      9  -5.19814120E+003 -2.79870911E+000   3.85537440E-007     858.74  <-- SCF
     10  -5.19814123E+003 -2.79724078E+000   1.01839521E-006     863.70  <-- SCF
     11  -5.19814126E+003 -2.79565598E+000   7.14827337E-007     868.69  <-- SCF
     12  -5.19814126E+003 -2.79425843E+000   2.21163646E-008     873.63  <-- SCF
------------------------------------------------------------------------ <-- SCF
 
Final energy, E             =  -5198.053198692     eV
Final free energy (E-TS)    =  -5198.141258907     eV
(energies not corrected for finite basis set)
 
NB est. 0K energy (E-0.5TS)      =  -5198.097228800     eV
 
(SEDC) Total Energy Correction : -0.279577E+01 eV

Dispersion corrected final energy*, Ecor          =  -5200.848969444     eV
Dispersion corrected final free energy* (Ecor-TS) =  -5200.937029659     eV
NB dispersion corrected est. 0K energy* (Ecor-0.5TS) =  -5200.892999552     eV
 +++++++++++++++++++++++++++++++++++++++++++++++++++++++
 Path coordinate:                         0.29619
 Energy:                              -5200.93703 eV                            
 +++++++++++++++++++++++++++++++++++++++++++++++++++++++
 
------------------------------------------------------------------------ <-- SCF
SCF loop      Energy           Fermi           Energy gain       Timer   <-- SCF
                               energy          per atom          (sec)   <-- SCF
------------------------------------------------------------------------ <-- SCF
Initial  -5.19789615E+003  0.00000000E+000                       878.61  <-- SCF
      1  -5.19829216E+003 -2.76895299E+000   1.16472705E-002     883.66  <-- SCF
      2  -5.19829626E+003 -2.76917895E+000   1.20613704E-004     890.41  <-- SCF
      3  -5.19827749E+003 -2.76859880E+000  -5.51913182E-004     896.29  <-- SCF
      4  -5.19827624E+003 -2.76556679E+000  -3.68422587E-005     902.46  <-- SCF
      5  -5.19827583E+003 -2.76414738E+000  -1.21293462E-005     908.43  <-- SCF
      6  -5.19827554E+003 -2.76306744E+000  -8.63725476E-006     913.41  <-- SCF
      7  -5.19827530E+003 -2.76087943E+000  -7.04256393E-006     918.18  <-- SCF
      8  -5.19827513E+003 -2.75673768E+000  -4.88977953E-006     923.15  <-- SCF
      9  -5.19827514E+003 -2.75372193E+000   2.54829127E-007     928.11  <-- SCF
     10  -5.19827512E+003 -2.74861380E+000  -5.34487003E-007     933.09  <-- SCF
     11  -5.19827508E+003 -2.74383274E+000  -1.15422319E-006     938.04  <-- SCF
     12  -5.19827543E+003 -2.73944659E+000   1.03834033E-005     943.10  <-- SCF
     13  -5.19827589E+003 -2.73741741E+000   1.34545546E-005     948.16  <-- SCF
     14  -5.19827620E+003 -2.73646717E+000   9.17385311E-006     953.20  <-- SCF
     15  -5.19827639E+003 -2.73589513E+000   5.42011091E-006     958.19  <-- SCF
     16  -5.19827653E+003 -2.73571141E+000   4.03851515E-006     963.14  <-- SCF
     17  -5.19827659E+003 -2.73564467E+000   1.88253552E-006     968.09  <-- SCF
     18  -5.19827662E+003 -2.73558105E+000   7.48723039E-007     973.03  <-- SCF
     19  -5.19827663E+003 -2.73547463E+000   4.42054192E-007     977.96  <-- SCF
     20  -5.19827664E+003 -2.73534559E+000   1.91201130E-007     982.83  <-- SCF
------------------------------------------------------------------------ <-- SCF
 
Final energy, E             =  -5198.182829421     eV
Final free energy (E-TS)    =  -5198.276636746     eV
(energies not corrected for finite basis set)
 
NB est. 0K energy (E-0.5TS)      =  -5198.229733083     eV
 
(SEDC) Total Energy Correction : -0.279438E+01 eV

Dispersion corrected final energy*, Ecor          =  -5200.977208651     eV
Dispersion corrected final free energy* (Ecor-TS) =  -5201.071015976     eV
NB dispersion corrected est. 0K energy* (Ecor-0.5TS) =  -5201.024112314     eV
 +++++++++++++++++++++++++++++++++++++++++++++++++++++++
 Path coordinate:                         0.26769
 Energy:                              -5201.07102 eV                            
 +++++++++++++++++++++++++++++++++++++++++++++++++++++++
 
------------------------------------------------------------------------ <-- SCF
SCF loop      Energy           Fermi           Energy gain       Timer   <-- SCF
                               energy          per atom          (sec)   <-- SCF
------------------------------------------------------------------------ <-- SCF
Initial  -5.19718198E+003  0.00000000E+000                       987.74  <-- SCF
      1  -5.19816420E+003 -2.77267693E+000   2.88888834E-002     992.45  <-- SCF
      2  -5.19817282E+003 -2.77326073E+000   2.53430950E-004     999.25  <-- SCF
      3  -5.19813990E+003 -2.76303615E+000  -9.68404388E-004    1005.24  <-- SCF
      4  -5.19813693E+003 -2.77251923E+000  -8.71696622E-005    1011.45  <-- SCF
      5  -5.19813617E+003 -2.76753653E+000  -2.23439279E-005    1017.66  <-- SCF
      6  -5.19813675E+003 -2.77179508E+000   1.70315117E-005    1022.77  <-- SCF
      7  -5.19813708E+003 -2.77347458E+000   9.67443765E-006    1027.83  <-- SCF
      8  -5.19813773E+003 -2.77610315E+000   1.92551126E-005    1032.93  <-- SCF
      9  -5.19813835E+003 -2.78157137E+000   1.79526315E-005    1038.04  <-- SCF
     10  -5.19813870E+003 -2.78678431E+000   1.03532897E-005    1043.09  <-- SCF
     11  -5.19813873E+003 -2.79227844E+000   9.91686800E-007    1048.15  <-- SCF
     12  -5.19813875E+003 -2.79737770E+000   6.28969490E-007    1053.19  <-- SCF
     13  -5.19813888E+003 -2.80083695E+000   3.67944999E-006    1058.28  <-- SCF
     14  -5.19813905E+003 -2.80258000E+000   5.12012614E-006    1063.27  <-- SCF
     15  -5.19813919E+003 -2.80305277E+000   4.21707913E-006    1068.24  <-- SCF
     16  -5.19813928E+003 -2.80327280E+000   2.64190251E-006    1073.18  <-- SCF
     17  -5.19813934E+003 -2.80341281E+000   1.76470765E-006    1078.16  <-- SCF
     18  -5.19813938E+003 -2.80352750E+000   9.60587395E-007    1083.08  <-- SCF
     19  -5.19813939E+003 -2.80362144E+000   2.91042396E-007    1088.02  <-- SCF
     20  -5.19813939E+003 -2.80377973E+000   2.35425261E-008    1092.93  <-- SCF
------------------------------------------------------------------------ <-- SCF
 
Final energy, E             =  -5198.067682261     eV
Final free energy (E-TS)    =  -5198.139388069     eV
(energies not corrected for finite basis set)
 
NB est. 0K energy (E-0.5TS)      =  -5198.103535165     eV
 
(SEDC) Total Energy Correction : -0.279663E+01 eV

Dispersion corrected final energy*, Ecor          =  -5200.864314699     eV
Dispersion corrected final free energy* (Ecor-TS) =  -5200.936020507     eV
NB dispersion corrected est. 0K energy* (Ecor-0.5TS) =  -5200.900167603     eV
 +++++++++++++++++++++++++++++++++++++++++++++++++++++++
 Path coordinate:                         0.30616
 Energy:                              -5200.93602 eV                            
 +++++++++++++++++++++++++++++++++++++++++++++++++++++++
 
------------------------------------------------------------------------ <-- SCF
SCF loop      Energy           Fermi           Energy gain       Timer   <-- SCF
                               energy          per atom          (sec)   <-- SCF
------------------------------------------------------------------------ <-- SCF
Initial  -5.19807041E+003  0.00000000E+000                      1097.83  <-- SCF
      1  -5.19813798E+003 -2.80279906E+000   1.98726411E-003    1102.83  <-- SCF
      2  -5.19813805E+003 -2.80280498E+000   2.30193083E-006    1108.87  <-- SCF
      3  -5.19813773E+003 -2.80111380E+000  -9.43193345E-006    1114.40  <-- SCF
      4  -5.19813771E+003 -2.80149339E+000  -7.95184281E-007    1119.36  <-- SCF
      5  -5.19813769E+003 -2.80145227E+000  -3.52034348E-007    1124.31  <-- SCF
      6  -5.19813769E+003 -2.80132235E+000  -1.55260778E-007    1129.21  <-- SCF
------------------------------------------------------------------------ <-- SCF
 
Final energy, E             =  -5198.058199892     eV
Final free energy (E-TS)    =  -5198.137689458     eV
(energies not corrected for finite basis set)
 
NB est. 0K energy (E-0.5TS)      =  -5198.097944675     eV
 
(SEDC) Total Energy Correction : -0.279741E+01 eV

Dispersion corrected final energy*, Ecor          =  -5200.855610350     eV
Dispersion corrected final free energy* (Ecor-TS) =  -5200.935099916     eV
NB dispersion corrected est. 0K energy* (Ecor-0.5TS) =  -5200.895355133     eV
 +++++++++++++++++++++++++++++++++++++++++++++++++++++++
 Path coordinate:                         0.30169
 Energy:                              -5200.93510 eV                            
 +++++++++++++++++++++++++++++++++++++++++++++++++++++++
 
------------------------------------------------------------------------ <-- SCF
SCF loop      Energy           Fermi           Energy gain       Timer   <-- SCF
                               energy          per atom          (sec)   <-- SCF
------------------------------------------------------------------------ <-- SCF
Initial  -5.19746840E+003  0.00000000E+000                      1134.00  <-- SCF
      1  -5.19816055E+003 -2.80003755E+000   2.03572494E-002    1138.62  <-- SCF
      2  -5.19816820E+003 -2.80032597E+000   2.25166533E-004    1145.85  <-- SCF
      3  -5.19816145E+003 -2.79867328E+000  -1.98778111E-004    1151.99  <-- SCF
      4  -5.19816118E+003 -2.79626627E+000  -7.74598682E-006    1158.02  <-- SCF
      5  -5.19816098E+003 -2.79625963E+000  -5.85046174E-006    1163.50  <-- SCF
      6  -5.19816091E+003 -2.79518981E+000  -2.15327602E-006    1168.51  <-- SCF
      7  -5.19816081E+003 -2.79390507E+000  -3.09479641E-006    1173.44  <-- SCF
      8  -5.19816074E+003 -2.79203776E+000  -1.97110686E-006    1178.42  <-- SCF
      9  -5.19816075E+003 -2.78959801E+000   3.30033947E-007    1183.40  <-- SCF
     10  -5.19816078E+003 -2.78767336E+000   7.95461020E-007    1188.24  <-- SCF
     11  -5.19816080E+003 -2.78503752E+000   5.71208620E-007    1193.21  <-- SCF
     12  -5.19816083E+003 -2.78275133E+000   9.71907769E-007    1198.19  <-- SCF
     13  -5.19816100E+003 -2.78089892E+000   5.06795004E-006    1203.25  <-- SCF
     14  -5.19816119E+003 -2.78037430E+000   5.40176425E-006    1208.25  <-- SCF
     15  -5.19816129E+003 -2.78005617E+000   3.01526111E-006    1213.17  <-- SCF
     16  -5.19816135E+003 -2.77990415E+000   1.83399323E-006    1217.99  <-- SCF
     17  -5.19816138E+003 -2.77989395E+000   9.29864996E-007    1222.89  <-- SCF
     18  -5.19816140E+003 -2.77985726E+000   4.22386416E-007    1227.83  <-- SCF
     19  -5.19816140E+003 -2.77981287E+000   1.90504506E-007    1232.76  <-- SCF
------------------------------------------------------------------------ <-- SCF
 
Final energy, E             =  -5198.062587803     eV
Final free energy (E-TS)    =  -5198.161402510     eV
(energies not corrected for finite basis set)
 
NB est. 0K energy (E-0.5TS)      =  -5198.111995156     eV
 
(SEDC) Total Energy Correction : -0.279680E+01 eV

Dispersion corrected final energy*, Ecor          =  -5200.859383544     eV
Dispersion corrected final free energy* (Ecor-TS) =  -5200.958198251     eV
NB dispersion corrected est. 0K energy* (Ecor-0.5TS) =  -5200.908790897     eV
 +++++++++++++++++++++++++++++++++++++++++++++++++++++++
 Path coordinate:                         0.28413
 Energy:                              -5200.95820 eV                            
 +++++++++++++++++++++++++++++++++++++++++++++++++++++++
 
------------------------------------------------------------------------ <-- SCF
SCF loop      Energy           Fermi           Energy gain       Timer   <-- SCF
                               energy          per atom          (sec)   <-- SCF
------------------------------------------------------------------------ <-- SCF
Initial  -5.19708791E+003  0.00000000E+000                      1237.69  <-- SCF
      1  -5.19814409E+003 -2.77767626E+000   3.10641115E-002    1242.41  <-- SCF
      2  -5.19815195E+003 -2.77785141E+000   2.31196477E-004    1249.60  <-- SCF
      3  -5.19814865E+003 -2.77423364E+000  -9.68663727E-005    1255.52  <-- SCF
      4  -5.19814887E+003 -2.77809234E+000   6.27897637E-006    1261.55  <-- SCF
      5  -5.19814877E+003 -2.77707012E+000  -2.82180697E-006    1266.72  <-- SCF
      6  -5.19814874E+003 -2.77699928E+000  -1.05130484E-006    1271.65  <-- SCF
      7  -5.19814873E+003 -2.77788045E+000  -1.70891277E-007    1276.58  <-- SCF
      8  -5.19814876E+003 -2.77865619E+000   9.66864398E-007    1281.37  <-- SCF
------------------------------------------------------------------------ <-- SCF
 
Final energy, E             =  -5198.055483541     eV
Final free energy (E-TS)    =  -5198.148763532     eV
(energies not corrected for finite basis set)
 
NB est. 0K energy (E-0.5TS)      =  -5198.102123536     eV
 
(SEDC) Total Energy Correction : -0.279619E+01 eV

Dispersion corrected final energy*, Ecor          =  -5200.851673827     eV
Dispersion corrected final free energy* (Ecor-TS) =  -5200.944953819     eV
NB dispersion corrected est. 0K energy* (Ecor-0.5TS) =  -5200.898313823     eV
 +++++++++++++++++++++++++++++++++++++++++++++++++++++++
 Path coordinate:                         0.29210
 Energy:                              -5200.94495 eV                            
 +++++++++++++++++++++++++++++++++++++++++++++++++++++++
 
------------------------------------------------------------------------ <-- SCF
SCF loop      Energy           Fermi           Energy gain       Timer   <-- SCF
                               energy          per atom          (sec)   <-- SCF
------------------------------------------------------------------------ <-- SCF
Initial  -5.19804491E+003  0.00000000E+000                      1286.26  <-- SCF
      1  -5.19813985E+003 -2.78348328E+000   2.79234373E-003    1291.34  <-- SCF
      2  -5.19814001E+003 -2.78349476E+000   4.53758773E-006    1297.79  <-- SCF
      3  -5.19813919E+003 -2.78436045E+000  -2.40880418E-005    1303.77  <-- SCF
      4  -5.19813908E+003 -2.78507750E+000  -3.18742821E-006    1308.82  <-- SCF
      5  -5.19813904E+003 -2.78504852E+000  -1.09219921E-006    1313.68  <-- SCF
      6  -5.19813904E+003 -2.78566401E+000   4.80873709E-009    1318.34  <-- SCF
      7  -5.19813905E+003 -2.78621620E+000   2.04613376E-007    1323.15  <-- SCF
------------------------------------------------------------------------ <-- SCF
 
Final energy, E             =  -5198.054169181     eV
Final free energy (E-TS)    =  -5198.139048175     eV
(energies not corrected for finite basis set)
 
NB est. 0K energy (E-0.5TS)      =  -5198.096608678     eV
 
(SEDC) Total Energy Correction : -0.279663E+01 eV

Dispersion corrected final energy*, Ecor          =  -5200.850799326     eV
Dispersion corrected final free energy* (Ecor-TS) =  -5200.935678320     eV
NB dispersion corrected est. 0K energy* (Ecor-0.5TS) =  -5200.893238823     eV
 +++++++++++++++++++++++++++++++++++++++++++++++++++++++
 Path coordinate:                         0.29829
 Energy:                              -5200.93568 eV                            
 +++++++++++++++++++++++++++++++++++++++++++++++++++++++
 
------------------------------------------------------------------------ <-- SCF
SCF loop      Energy           Fermi           Energy gain       Timer   <-- SCF
                               energy          per atom          (sec)   <-- SCF
------------------------------------------------------------------------ <-- SCF
Initial  -5.19810001E+003  0.00000000E+000                      1328.12  <-- SCF
      1  -5.19814487E+003 -2.78397814E+000   1.31957537E-003    1333.12  <-- SCF
      2  -5.19814501E+003 -2.78398365E+000   4.11716946E-006    1339.72  <-- SCF
      3  -5.19814473E+003 -2.78387590E+000  -8.35814054E-006    1345.38  <-- SCF
      4  -5.19814477E+003 -2.78409703E+000   1.16402014E-006    1350.41  <-- SCF
      5  -5.19814478E+003 -2.78425475E+000   3.97113011E-007    1355.26  <-- SCF
      6  -5.19814480E+003 -2.78441997E+000   4.45657345E-007    1360.02  <-- SCF
------------------------------------------------------------------------ <-- SCF
 
Final energy, E             =  -5198.054550854     eV
Final free energy (E-TS)    =  -5198.144796843     eV
(energies not corrected for finite basis set)
 
NB est. 0K energy (E-0.5TS)      =  -5198.099673848     eV
 
(SEDC) Total Energy Correction : -0.279703E+01 eV

Dispersion corrected final energy*, Ecor          =  -5200.851579105     eV
Dispersion corrected final free energy* (Ecor-TS) =  -5200.941825094     eV
NB dispersion corrected est. 0K energy* (Ecor-0.5TS) =  -5200.896702099     eV
 +++++++++++++++++++++++++++++++++++++++++++++++++++++++
[...]
      C    17      S                    1.027
      C    17      Px                   0.987
      C    17      Py                   0.985
      C    17      Pz                   1.002
      C    18      S                    1.027
      C    18      Px                   0.987
      C    18      Py                   0.986
      C    18      Pz                   0.998
      C    19      S                    1.029
      C    19      Px                   0.988
      C    19      Py                   0.984
      C    19      Pz                   1.009
      C    20      S                    1.027
      C    20      Px                   0.977
      C    20      Py                   0.992
      C    20      Pz                   0.991
      C    21      S                    1.026
      C    21      Px                   0.978
      C    21      Py                   0.992
      C    21      Pz                   0.990
      C    22      S                    1.104
      C    22      Px                   0.999
      C    22      Py                   0.966
      C    22      Pz                   1.048
      C    23      S                    1.028
      C    23      Px                   0.983
      C    23      Py                   0.988
      C    23      Pz                   1.003
      C    24      S                    1.025
      C    24      Px                   0.988
      C    24      Py                   0.987
      C    24      Pz                   0.999
      C    25      S                    1.026
      C    25      Px                   0.987
      C    25      Py                   0.985
      C    25      Pz                   1.002
      C    26      S                    1.027
      C    26      Px                   0.987
      C    26      Py                   0.988
      C    26      Pz                   1.001
      C    27      S                    1.028
      C    27      Px                   0.985
      C    27      Py                   0.989
      C    27      Pz                   0.996
      C    28      S                    1.029
      C    28      Px                   0.986
      C    28      Py                   0.986
      C    28      Pz                   0.999
      C    29      S                    1.028
      C    29      Px                   0.986
      C    29      Py                   0.986
      C    29      Pz                   0.999
      C    30      S                    1.029
      C    30      Px                   0.988
      C    30      Py                   0.984
      C    30      Pz                   1.009
      C    31      S                    1.026
      C    31      Px                   0.988
      C    31      Py                   0.986
      C    31      Pz                   0.998
      C    32      S                    1.025
      C    32      Px                   0.988
      C    32      Py                   0.987
      C    32      Pz                   0.999
  -------------------------------------------
                           Total:     129.997
  -------------------------------------------
 
     Atomic Populations (Mulliken)
     -----------------------------
Species          Ion     s       p       d       f      Total   Charge (e)
==========================================================================
  H               1     0.890   0.000   0.000   0.000   0.890     0.110
  H               2     0.891   0.000   0.000   0.000   0.891     0.109
  C               1     1.025   2.974   0.000   0.000   3.998     0.002
  C               2     1.026   2.972   0.000   0.000   3.999     0.001
  C               3     1.029   2.980   0.000   0.000   4.009    -0.009
  C               4     1.028   2.972   0.000   0.000   4.000     0.000
  C               5     1.029   2.970   0.000   0.000   3.999     0.001
  C               6     1.028   2.970   0.000   0.000   3.998     0.002
  C               7     1.027   2.975   0.000   0.000   4.002    -0.002
  C               8     1.026   2.975   0.000   0.000   4.001    -0.001
  C               9     1.025   2.974   0.000   0.000   3.999     0.001
  C              10     1.028   2.975   0.000   0.000   4.003    -0.003
  C              11     1.105   3.014   0.000   0.000   4.119    -0.119
  C              12     1.026   2.960   0.000   0.000   3.986     0.014
  C              13     1.027   2.960   0.000   0.000   3.986     0.014
  C              14     1.029   2.981   0.000   0.000   4.010    -0.010
  C              15     1.027   2.971   0.000   0.000   3.999     0.001
  C              16     1.027   2.974   0.000   0.000   4.001    -0.001
  C              17     1.027   2.974   0.000   0.000   4.001    -0.001
  C              18     1.027   2.971   0.000   0.000   3.999     0.001
  C              19     1.029   2.980   0.000   0.000   4.009    -0.009
  C              20     1.027   2.960   0.000   0.000   3.986     0.014
  C              21     1.026   2.960   0.000   0.000   3.986     0.014
  C              22     1.104   3.014   0.000   0.000   4.118    -0.118
  C              23     1.028   2.975   0.000   0.000   4.003    -0.003
  C              24     1.025   2.974   0.000   0.000   3.999     0.001
  C              25     1.026   2.975   0.000   0.000   4.001    -0.001
  C              26     1.027   2.975   0.000   0.000   4.002    -0.002
  C              27     1.028   2.970   0.000   0.000   3.998     0.002
  C              28     1.029   2.971   0.000   0.000   4.000     0.000
  C              29     1.028   2.972   0.000   0.000   4.000     0.000
  C              30     1.029   2.980   0.000   0.000   4.009    -0.009
  C              31     1.026   2.972   0.000   0.000   3.999     0.001
  C              32     1.025   2.974   0.000   0.000   3.999     0.001
==========================================================================
 
                 Bond                   Population      Length (A)
======================================================================
               H 1 -- H 2                    0.33        1.22851
              C 6  -- C 27                   1.12        1.41195
              C 1  -- C 12                   1.11        1.41620
              C 21 -- C 32                   1.11        1.41634
              C 29 -- C 30                   1.11        1.41647
              C 3  -- C 4                    1.11        1.41654
              C 9  -- C 20                   1.11        1.41672
              C 13 -- C 24                   1.11        1.41679
              C 5  -- C 14                   1.11        1.41707
              C 19 -- C 28                   1.11        1.41723
              C 8  -- C 31                   1.09        1.41981
               H 1 -- C 11                   0.31        1.41999
              C 2  -- C 25                   1.09        1.42005
              C 23 -- C 26                   1.09        1.42055
              C 7  -- C 10                   1.10        1.42065
              C 15 -- C 16                   1.09        1.42215
              C 17 -- C 18                   1.09        1.42244
              C 1  -- C 2                    1.06        1.42327
              C 31 -- C 32                   1.06        1.42350
              C 9  -- C 18                   1.06        1.42391
              C 15 -- C 24                   1.06        1.42406
               H 2 -- C 22                   0.30        1.42460
              C 7  -- C 16                   1.06        1.42755
              C 17 -- C 26                   1.06        1.42767
              C 7  -- C 8                    1.06        1.42782
              C 25 -- C 26                   1.06        1.42797
              C 3  -- C 12                   1.06        1.42830
              C 21 -- C 30                   1.06        1.42838
              C 19 -- C 20                   1.06        1.42887
              C 13 -- C 14                   1.06        1.42908
              C 4  -- C 25                   1.06        1.43042
              C 8  -- C 29                   1.06        1.43084
              C 23 -- C 32                   1.05        1.43120
              C 15 -- C 18                   1.06        1.43132
              C 1  -- C 10                   1.05        1.43133
              C 2  -- C 31                   1.06        1.43151
              C 23 -- C 24                   1.05        1.43178
              C 9  -- C 10                   1.05        1.43179
              C 17 -- C 28                   1.06        1.43191
              C 5  -- C 16                   1.06        1.43242
              C 6  -- C 29                   1.04        1.43390
              C 4  -- C 27                   1.04        1.43399
              C 5  -- C 6                    1.04        1.43482
              C 27 -- C 28                   1.04        1.43502
              C 3  -- C 14                   1.03        1.43968
              C 19 -- C 30                   1.03        1.43972
              C 13 -- C 22                   1.03        1.44395
              C 21 -- C 22                   1.03        1.44414
              C 11 -- C 20                   1.03        1.44452
              C 11 -- C 12                   1.03        1.44465
              C 11 -- C 22                   0.82        1.51915
               H 2 -- C 11                  -0.31        1.97041
               H 1 -- C 22                  -0.31        1.97380
               H 1 -- C 12                  -0.13        2.23833
               H 1 -- C 20                  -0.13        2.24193
               H 2 -- C 21                  -0.12        2.24229
               H 2 -- C 13                  -0.12        2.24405
              C 21 -- C 31                  -0.18        2.45496
              C 2  -- C 12                  -0.18        2.45531
              C 13 -- C 15                  -0.18        2.45586
              C 18 -- C 20                  -0.18        2.45611
              C 21 -- C 29                  -0.18        2.45873
              C 4  -- C 12                  -0.18        2.45905
              C 5  -- C 13                  -0.18        2.46024
              C 20 -- C 28                  -0.18        2.46030
              C 6  -- C 28                  -0.18        2.46243
              C 5  -- C 27                  -0.18        2.46254
              C 8  -- C 32                  -0.18        2.46333
              C 1  -- C 25                  -0.18        2.46349
              C 17 -- C 23                  -0.18        2.46356
              C 10 -- C 16                  -0.18        2.46385
              C 8  -- C 30                  -0.18        2.46474
              C 4  -- C 6                   -0.18        2.46484
              C 3  -- C 25                  -0.18        2.46492
              C 27 -- C 29                  -0.18        2.46514
              C 22 -- C 32                  -0.18        2.46525
              C 23 -- C 25                  -0.18        2.46540
              C 22 -- C 24                  -0.18        2.46560
              C 8  -- C 10                  -0.18        2.46563
              C 1  -- C 11                  -0.18        2.46650
              C 9  -- C 11                  -0.18        2.46674
              C 7  -- C 31                  -0.18        2.46680
              C 2  -- C 4                   -0.18        2.46691
              C 16 -- C 24                  -0.18        2.46714
              C 9  -- C 17                  -0.18        2.46721
              C 14 -- C 16                  -0.18        2.46767
              C 17 -- C 19                  -0.18        2.46775
              C 29 -- C 31                  -0.18        2.46783
              C 2  -- C 26                  -0.18        2.46806
              C 18 -- C 28                  -0.18        2.46815
              C 18 -- C 24                  -0.18        2.46848
              C 5  -- C 15                  -0.18        2.46876
              C 2  -- C 32                  -0.18        2.46880
              C 1  -- C 3                   -0.17        2.46883
              C 9  -- C 15                  -0.18        2.46886
              C 1  -- C 31                  -0.18        2.46903
              C 19 -- C 29                  -0.18        2.46912
              C 3  -- C 5                   -0.18        2.46943
              C 4  -- C 14                  -0.18        2.46955
              C 9  -- C 19                  -0.17        2.46992
              C 30 -- C 32                  -0.17        2.46993
              C 7  -- C 15                  -0.18        2.46997
              C 2  -- C 10                  -0.17        2.47007
              C 28 -- C 30                  -0.18        2.47009
              C 25 -- C 31                  -0.18        2.47048
              C 14 -- C 24                  -0.17        2.47064
              C 26 -- C 32                  -0.18        2.47082
              C 2  -- C 8                   -0.18        2.47091
              C 18 -- C 26                  -0.17        2.47115
              C 21 -- C 23                  -0.18        2.47121
              C 23 -- C 31                  -0.17        2.47129
              C 6  -- C 30                  -0.17        2.47143
              C 3  -- C 27                  -0.17        2.47147
              C 10 -- C 18                  -0.17        2.47151
              C 13 -- C 23                  -0.18        2.47160
              C 10 -- C 12                  -0.18        2.47165
              C 1  -- C 7                   -0.18        2.47166
              C 15 -- C 17                  -0.18        2.47185
              C 16 -- C 18                  -0.18        2.47210
              C 10 -- C 20                  -0.18        2.47219
              C 24 -- C 26                  -0.17        2.47238
              C 15 -- C 23                  -0.17        2.47273
              C 7  -- C 9                   -0.17        2.47303
              C 6  -- C 14                  -0.17        2.47384
              C 19 -- C 27                  -0.17        2.47393
              C 1  -- C 9                   -0.17        2.47491
              C 4  -- C 26                  -0.18        2.47539
              C 7  -- C 29                  -0.18        2.47581
              C 24 -- C 32                  -0.17        2.47598
              C 8  -- C 16                  -0.18        2.47602
              C 17 -- C 25                  -0.17        2.47688
              C 25 -- C 27                  -0.18        2.47721
              C 26 -- C 28                  -0.17        2.47724
              C 17 -- C 27                  -0.18        2.47748
              C 6  -- C 16                  -0.18        2.47793
              C 6  -- C 8                   -0.18        2.47795
              C 5  -- C 7                   -0.17        2.47801
              C 5  -- C 29                  -0.17        2.48523
              C 4  -- C 28                  -0.17        2.48614
              C 12 -- C 20                  -0.16        2.48983
              C 12 -- C 14                  -0.18        2.49040
              C 20 -- C 30                  -0.18        2.49091
              C 13 -- C 21                  -0.16        2.49104
              C 19 -- C 21                  -0.18        2.49114
              C 3  -- C 13                  -0.18        2.49154
              C 22 -- C 30                  -0.18        2.49257
              C 3  -- C 11                  -0.18        2.49289
              C 14 -- C 22                  -0.18        2.49311
              C 11 -- C 19                  -0.18        2.49319
              C 11 -- C 13                  -0.14        2.54486
              C 11 -- C 21                  -0.14        2.54549
              C 20 -- C 22                  -0.14        2.54569
              C 12 -- C 22                  -0.14        2.54615
              C 8  -- C 21                  -0.11        2.83640
              C 12 -- C 25                  -0.11        2.83764
              C 13 -- C 16                  -0.11        2.84063
              C 17 -- C 20                  -0.11        2.84127
              C 4  -- C 5                   -0.10        2.84164
              C 28 -- C 29                  -0.10        2.84186
              C 22 -- C 23                  -0.10        2.84568
              C 1  -- C 4                   -0.10        2.84633
              C 2  -- C 3                   -0.10        2.84719
              C 29 -- C 32                  -0.10        2.84744
              C 10 -- C 31                  -0.10        2.84765
              C 30 -- C 31                  -0.10        2.84790
              C 9  -- C 28                  -0.10        2.84803
              C 18 -- C 19                  -0.10        2.84820
              C 10 -- C 15                  -0.10        2.84825
              C 10 -- C 11                  -0.10        2.84836
              C 14 -- C 15                  -0.10        2.84851
              C 17 -- C 24                  -0.10        2.84883
              C 5  -- C 24                  -0.10        2.84885
              C 2  -- C 23                  -0.10        2.84897
              C 18 -- C 23                  -0.10        2.84935
              C 25 -- C 32                  -0.10        2.84958
              C 9  -- C 16                  -0.10        2.85037
              C 1  -- C 8                   -0.10        2.85125
              C 6  -- C 19                  -0.10        2.85263
              C 14 -- C 27                  -0.10        2.85324
              C 2  -- C 7                   -0.10        2.85343
              C 26 -- C 31                  -0.10        2.85424
              C 3  -- C 6                   -0.10        2.85527
              C 27 -- C 30                  -0.10        2.85594
              C 26 -- C 27                  -0.09        2.85611
              C 7  -- C 18                  -0.10        2.85674
              C 6  -- C 7                   -0.09        2.85751
              C 15 -- C 26                  -0.10        2.85767
              C 1  -- C 20                  -0.09        2.85803
              C 9  -- C 12                  -0.09        2.85807
              C 13 -- C 32                  -0.09        2.85892
              C 21 -- C 24                  -0.09        2.85927
              C 16 -- C 29                  -0.09        2.86284
              C 4  -- C 17                  -0.09        2.86362
              C 5  -- C 8                   -0.09        2.86536
              C 25 -- C 28                  -0.09        2.86564
              C 12 -- C 13                  -0.07        2.89215
              C 20 -- C 21                  -0.07        2.89239
              C 11 -- C 14                  -0.08        2.89788
              C 11 -- C 30                  -0.08        2.89821
              C 19 -- C 22                  -0.08        2.89889
              C 3  -- C 22                  -0.08        2.89941
               H 2 -- C 20                  -0.04        2.92783
               H 2 -- C 12                  -0.04        2.92845
               H 1 -- C 13                  -0.04        2.92850
               H 1 -- C 21                  -0.04        2.93062
======================================================================
 

Writing analysis data to 4x4.castep_bin

Writing model to 4x4.check
 
 A BibTeX formatted list of references used in this run has been written to 
 4x4.bib
 
Initialisation time =      2.97 s
Calculation time    =   3573.60 s
Finalisation time   =      1.95 s
Total time          =   3578.51 s
Peak Memory Use     = 1008980 kB
  
Overall parallel efficiency rating: Mediocre (52%)                              
  
Data was distributed by:-
G-vector (16-way); efficiency rating: Mediocre (54%)                            
k-point (8-way); efficiency rating: Excellent (95%)                             
