 +-------------------------------------------------+
 |                                                 |
 |      CCC   AA    SSS  TTTTT  EEEEE  PPPP        |
 |     C     A  A  S       T    E      P   P       |
 |     C     AAAA   SS     T    EEE    PPPP        |
 |     C     A  A     S    T    E      P           |
 |      CCC  A  A  SSS     T    EEEEE  P           |
 |                                                 |
 +-------------------------------------------------+
 |                                                 |
 | Welcome to Academic Release CASTEP version 21.11|          
 | Ab Initio Total Energy Program                  |
 |                                                 |
 | Authors:                                        |
 | M. Segall, M. Probert, C. Pickard, P. Hasnip,   |
 | S. Clark, K. Refson, J. R. Yates, M. Payne      |
 |                                                 |
 | Contributors:                                   |
 | P. Lindan, P. Haynes, J. White, V. Milman,      |
 | N. Govind, M. Gibson, P. Tulip, V. Cocula,      |
 | B. Montanari, D. Quigley, M. Glover,            |
 | L. Bernasconi, A. Perlov, M. Plummer,           |
 | E. McNellis, J. Meyer, J. Gale, D. Jochym       |
 | J. Aarons, B. Walker, R. Gillen, D. Jones       |
 | T. Green, I. J. Bush, C. J. Armstrong,          |
 | E. J. Higgins, E. L. Brown, M. S. McFly,        |
 | J. Wilkins, B-C. Shih, P. J. P. Byrne,          |
 | R. J. Maurer, J. C. Womack, J. Dziedzic,        |
 | A. Bartok-Partay, L. LeBlanc                    |
 |                                                 |
 | Copyright (c) 2000 - 2021                       |
 |                                                 |
 |     Distributed under license from Cambridge    |
 |     Enterprise for academic use only.           |
 |                                                 |
 | Please cite                                     |
 |                                                 |
 |     "First principles methods using CASTEP"     |
 |                                                 |
 |         Zeitschrift fuer Kristallographie       |
 |           220(5-6) pp. 567-570 (2005)           |
 |                                                 |
 | S. J. Clark, M. D. Segall, C. J. Pickard,       |
 | P. J. Hasnip, M. J. Probert, K. Refson,         |
 | M. C. Payne                                     |
 |                                                 |
 |       in all publications arising from          |
 |              your use of CASTEP                 |
 |                                                 |
 +-------------------------------------------------+
 |                                                 |
 |              http://www.castep.org              |
 |                                                 |
 +-------------------------------------------------+
 
 
 
 Compiled for linux_x86_64_cray-XT on Tue, 01 Mar 2022 09:19:15 +0000
 from code version 7d4405a8a+  HEAD  Sat Nov 27 13:38:33 2021 +0000
 Compiler: Cray Fortran 12.0.3; Optimisation: fast
 MATHLIBS: LibSci (LAPACK version 3.6.1)
 FFT Lib : fftw3 version commercial-fftw-3.3.8-sse2-avx-avx2-avx2_128
 Fundamental constants values: CODATA 2014
 
 Run started: Thu, 27 Oct 2022 12:19:41 -0100
 
 Atomic calculation performed for H: 1s1
 
 Converged in 41 iterations to an ae energy of -12.488 eV
 
   ============================================================                
   | Pseudopotential Report - Date of generation 27-10-2022   |                
   ------------------------------------------------------------                
   | Element: H Ionic charge:  1.00 Level of theory: PBE      |                
   | Atomic Solver: Koelling-Harmon                           |                
   |                                                          |                
   |               Reference Electronic Structure             |                
   |         Orbital         Occupation         Energy        |                
   |            1s              1.000           -0.239        |                
   |                                                          |                
   |                 Pseudopotential Definition               |                
   |        Beta     l      e      Rc     scheme   norm       |                
   |          1      0   -0.239   0.599     qc      0         |                
   |          2      0    0.250   0.599     qc      0         |                
   |         loc     1    0.000   0.599     pn      0         |                
   |                                                          |                
   | Augmentation charge Rinner = 0.421                       |                
   | No partial core correction                               |                
   ------------------------------------------------------------                
   | "1|0.6|13|15|17|10(qc=8)"                                |                
   ------------------------------------------------------------                
   |      Author: Chris J. Pickard, Cambridge University      |                
   ============================================================                
 
 Atomic calculation performed for C: 1s2 2s2 2p2
 
 Converged in 54 iterations to an ae energy of -1027.632 eV
 
   ============================================================                
   | Pseudopotential Report - Date of generation 27-10-2022   |                
   ------------------------------------------------------------                
   | Element: C Ionic charge:  4.00 Level of theory: PBE      |                
   | Atomic Solver: Koelling-Harmon                           |                
   |                                                          |                
   |               Reference Electronic Structure             |                
   |         Orbital         Occupation         Energy        |                
   |            2s              2.000           -0.505        |                
   |            2p              2.000           -0.194        |                
   |                                                          |                
   |                 Pseudopotential Definition               |                
   |        Beta     l      e      Rc     scheme   norm       |                
   |          1      0   -0.505   1.201     qc      1         |                
   |         loc     1   -0.194   1.201     qc      1         |                
   |                                                          |                
   | No charge augmentation                                   |                
   | Partial core correction Rc = 0.839                       |                
   ------------------------------------------------------------                
   | "1|1.2|17|20|23|20N:21L(qc=8)"                           |                
   ------------------------------------------------------------                
   |      Author: Chris J. Pickard, Cambridge University      |                
   ============================================================                
 
 Pseudo atomic calculation performed for H 1s1
 
 Converged in 13 iterations to a total energy of -12.4856 eV
 
 Pseudo atomic calculation performed for C 2s2 2p2
 
 Converged in 18 iterations to a total energy of -152.4291 eV
 Calculation parallelised over 128 processes.
 Data is distributed by G-vector(16-way) and k-point(8-way)

 ************************************ Title ************************************
 

 ***************************** General Parameters ******************************
  
 output verbosity                               : normal  (1)
 write checkpoint data to                       : 4x4.check
 type of calculation                            : geometry optimization
 stress calculation                             : off
 density difference calculation                 : off
 electron localisation func (ELF) calculation   : off
 Hirshfeld analysis                             : off
 polarisation (Berry phase) analysis            : off
 molecular orbital projected DOS                : off
 deltaSCF calculation                           : off
 unlimited duration calculation
 timing information                             : on
 memory usage estimate                          : on
 write extra output files                       : on
 write final potential to formatted file        : off
 write final density to formatted file          : off
 write structure in CELL formatted file         : on
 write BibTeX reference list                    : on
 write OTFG pseudopotential files               : on
 write electrostatic potential file             : on
 write bands file                               : on
 checkpoint writing                             : both castep_bin and check files
  
 output         length unit                     : A
 output           mass unit                     : amu
 output           time unit                     : ps
 output         charge unit                     : e
 output           spin unit                     : hbar/2
 output         energy unit                     : eV
 output          force unit                     : eV/A
 output       velocity unit                     : A/ps
 output       pressure unit                     : GPa
 output     inv_length unit                     : 1/A
 output      frequency unit                     : cm-1
 output force constant unit                     : eV/A**2
 output         volume unit                     : A**3
 output   IR intensity unit                     : (D/A)**2/amu
 output         dipole unit                     : D
 output         efield unit                     : eV/A/e
 output        entropy unit                     : J/mol/K
 output    efield chi2 unit                     : pm/V
  
 wavefunctions paging                           : none
 random number generator seed                   : randomised (121941441)
 data distribution                              : optimal for this architecture
 optimization strategy                          : maximize speed(+++)

 *********************** Exchange-Correlation Parameters ***********************
  
 using functional                               : Perdew Burke Ernzerhof
 relativistic treatment                         : Koelling-Harmon
 DFT+D: Semi-empirical dispersion correction    : on
 SEDC with                                      : MBD@rsSCS method

 ************************* Pseudopotential Parameters **************************
  
 pseudopotential representation                 : reciprocal space
 <beta|phi> representation                      : reciprocal space
 spin-orbit coupling                            : off

 **************************** Basis Set Parameters *****************************
  
 plane wave basis set cut-off                   :   800.0000   eV
 size of standard grid                          :     1.7500
 size of   fine   gmax                          :    25.3584   1/A
 finite basis set correction                    : none

 **************************** Electronic Parameters ****************************
  
 number of  electrons                           :  129.0    
 net charge of system                           :  0.000    
 net spin   of system                           :  1.000    
 number of  up  spins                           :  65.00    
 number of down spins                           :  64.00    
 treating system as spin-polarized
 number of bands                                :         98

 ********************* Electronic Minimization Parameters **********************
  
 Method: Treating system as metallic with density mixing treatment of electrons,
         and number of  SD  steps               :          1
         and number of  CG  steps               :          4
  
 total energy / atom convergence tol.           : 0.1000E-05   eV
 eigen-energy convergence tolerance             : 0.3367E-06   eV
 max force / atom convergence tol.              : ignored
 convergence tolerance window                   :          3   cycles
 max. number of SCF cycles                      :        100
 number of fixed-spin iterations                :         10
 smearing scheme                                : Gaussian
 smearing width                                 : 0.2000       eV
 Fermi energy convergence tolerance             : 0.2721E-13   eV
 periodic dipole correction                     : NONE

 ************************** Density Mixing Parameters **************************
  
 density-mixing scheme                          : Pulay
 max. length of mixing history                  :         20
 charge density mixing amplitude                : 0.8000    
   spin density mixing amplitude                :  2.000    
 cut-off energy for mixing                      :  800.0       eV

 *********************** Population Analysis Parameters ************************
  
 Population analysis with cutoff                :  3.000       A
 Population analysis output                     : summary and pdos components

 ********************** Geometry Optimization Parameters ***********************
  
 optimization method                            : LBFGS
 max. no. of LBFGS updates                      : unbounded
 variable cell method                           : fixed basis quality
 max. number of steps                           :        100
 estimated bulk modulus                         :  500.0       GPa
 estimated <frequency>                          :  1668.       cm-1
 geom line minimiser                            : on
 with line minimiser tolerance                  :     0.4000
  with spin fully able to relax for all steps
 total energy convergence tolerance             : 0.2000E-04   eV/atom
        max ionic |force| tolerance             : 0.1000E-01   eV/A
 max ionic |displacement| tolerance             : 0.1000E-02   A
   max |stress component| tolerance             : 0.1000       GPa
 convergence tolerance window                   :          2   steps
 backup results every                           :          5   steps
 write geom trajectory file                     : on

 *******************************************************************************
  
 
                           -------------------------------
                                      Unit Cell
                           -------------------------------
        Real Lattice(A)                      Reciprocal Lattice(1/A)
     9.8800000     0.0000000     0.0000000        0.635949930   0.367165863   0.000000000
    -4.9400000     8.5563310     0.0000000        0.000000000   0.734331726   0.000000000
     0.0000000     0.0000000    20.0339000        0.000000000   0.000000000   0.313627666
 
                       Lattice parameters(A)       Cell Angles
                    a =      9.880000          alpha =   90.000000
                    b =      9.880000          beta  =   90.000000
                    c =     20.033900          gamma =  120.000000
 
                       Current cell volume =          1693.596795       A**3
                                   density =             0.227534   AMU/A**3
                                           =             0.377829     g/cm^3
 
                           -------------------------------
                                     Cell Contents
                           -------------------------------
                         Total number of ions in cell =   33
                      Total number of species in cell =    2
                        Max number of any one species =   32
 
            xxxxxxxxxxxxxxxxxxxxxxxxxxxxxxxxxxxxxxxxxxxxxxxxxxxxxxxxxxxx
            x  Element    Atom        Fractional coordinates of atoms  x
            x            Number           u          v          w      x
            x----------------------------------------------------------x
            x  H            1         0.413105   0.333370   0.546361   x 
            x  C            1         0.166476   0.083155   0.500002   x 
            x  C            2        -0.000100  -0.000140   0.500002   x 
            x  C            3         0.166447   0.333239   0.500002   x 
            x  C            4        -0.000173   0.249815   0.500002   x 
            x  C            5         0.166520   0.583404   0.500002   x 
            x  C            6        -0.000108   0.499946   0.500002   x 
            x  C            7         0.166543   0.833430   0.500002   x 
            x  C            8        -0.000049   0.750064   0.500002   x 
            x  C            9         0.416557   0.083155   0.500002   x 
            x  C           10         0.249870  -0.000199   0.500002   x 
            x  C           11         0.416592   0.333285   0.500002   x 
            x  C           12         0.249853   0.249827   0.500002   x 
            x  C           13         0.416666   0.583474   0.500002   x 
            x  C           14         0.249889   0.499981   0.500002   x 
            x  C           15         0.416657   0.833476   0.500002   x 
            x  C           16         0.249960   0.750123   0.500002   x 
            x  C           17         0.666714   0.083225   0.500002   x 
            x  C           18         0.500005  -0.000152   0.500002   x 
            x  C           19         0.666769   0.333356   0.500002   x 
            x  C           20         0.500012   0.249862   0.500002   x 
            x  C           21         0.666815   0.583509   0.500002   x 
            x  C           22         0.500066   0.500051   0.500002   x 
            x  C           23         0.666788   0.833535   0.500002   x 
            x  C           24         0.500117   0.750193   0.500002   x 
            x  C           25         0.916717   0.083272   0.500002   x 
            x  C           26         0.750125  -0.000093   0.500002   x 
            x  C           27         0.916770   0.333379   0.500002   x 
            x  C           28         0.750152   0.249920   0.500002   x 
            x  C           29         0.916836   0.583509   0.500002   x 
            x  C           30         0.750215   0.500086   0.500002   x 
            x  C           31         0.916769   0.833476   0.500002   x 
            x  C           32         0.750202   0.750181   0.500002   x 
            xxxxxxxxxxxxxxxxxxxxxxxxxxxxxxxxxxxxxxxxxxxxxxxxxxxxxxxxxxxx
 
 
                         No user defined ionic velocities
 
                           -------------------------------
                                   Details of Species
                           -------------------------------
 
                               Mass of species in AMU
                                    H    1.0079400
                                    C   12.0107000
 
                          Electric Quadrupole Moment (Barn)
                                    H    0.0028600 Isotope  2
                                    C    0.0332700 Isotope 11
 
                          Files used for pseudopotentials:
                                    H 1|0.6|13|15|17|10(qc=8)
                                    C 1|1.2|17|20|23|20N:21L(qc=8)
 
                           -------------------------------
                              k-Points For BZ Sampling
                           -------------------------------
                       MP grid size for SCF calculation is  4  4  1
                            with an offset of   0.000  0.000  0.000
                       Number of kpoints used =   8
 
                           -------------------------------
                               Symmetry and Constraints
                           -------------------------------
 
                      Maximum deviation from symmetry =  0.00000         ANG
 
                      Number of symmetry operations   = 1
         There are no ionic constraints specified or generated for this cell
                      Point group of crystal =     1: C1, 1, 1
                      Space group of crystal =     1: P1, P 1
 
             Set iprint > 1 for details on symmetry rotations/translations
 
                         Centre of mass is NOT constrained
 
                         Number of cell constraints= 6
                         Cell constraints are:  0 0 0 0 0 0
 
                         External pressure/stress (GPa)
                          0.00000   0.00000   0.00000
                                    0.00000   0.00000
                                              0.00000
 
                                --------------------
                                  DFT-D parameters
                                --------------------
 
                          Dispersion-correction scheme : MBD*      
                        Parameter sR :   0.830000 (default)
 
        xxxxxxxxxxxxxxxxxxxxxxxxxxxxxxxxxxxxxxxxxxxxxxxxxxxxxxxxxxxxxxxxxxxx
        x              Atomic DFT-D parameters                             x
        x  Species      C6            alpha        R0                      x
        x               eV A^6        A^3          A                       x
        x------------------------------------------------------------------x
        x  H             3.8839       0.6668       1.6404   (default)      x
        x  C            27.8448       1.7782       1.8997   (default)      x
        xxxxxxxxxxxxxxxxxxxxxxxxxxxxxxxxxxxxxxxxxxxxxxxxxxxxxxxxxxxxxxxxxxxx
 
  
+---------------- MEMORY AND SCRATCH DISK ESTIMATES PER PROCESS --------------+
|                                                     Memory          Disk    |
| Baseline code, static data and system overhead      770.0 MB         0.0 MB |
| BLAS internal memory storage                          0.0 MB         0.0 MB |
| Model and support data                               49.8 MB         0.0 MB |
| Electronic energy minimisation requirements          85.3 MB         0.0 MB |
| Force calculation requirements                       20.6 MB         0.0 MB |
|                                               ----------------------------- |
| Approx. total storage required per process          905.1 MB         0.0 MB |
|                                                                             |
| Requirements will fluctuate during execution and may exceed these estimates |
+-----------------------------------------------------------------------------+
Calculating approximate eigenstates for fixed initial Hamiltonian
Cut-off for approx. calculation is  119.774 eV
Improving approx. states at cut-off of  462.594 eV
Resetting cut-off to  800.000 eV
Calculating total energy with cut-off of  800.000 eV.
------------------------------------------------------------------------ <-- SCF
SCF loop      Energy           Fermi           Energy gain       Timer   <-- SCF
                               energy          per atom          (sec)   <-- SCF
------------------------------------------------------------------------ <-- SCF
Initial  -4.73072400E+003  0.00000000E+000                        15.57  <-- SCF
      1  -5.19881331E+003 -5.39305093E+000   1.41845244E+001      26.63  <-- SCF
      2  -5.19903091E+003 -5.39428647E+000   6.59391100E-003      38.25  <-- SCF
      3  -5.18560332E+003 -4.07004285E+000  -4.06896434E-001      50.67  <-- SCF
      4  -5.18478130E+003 -3.56372103E+000  -2.49098066E-002      63.29  <-- SCF
      5  -5.18454650E+003 -3.32113713E+000  -7.11498749E-003      76.14  <-- SCF
      6  -5.18445256E+003 -3.10162459E+000  -2.84671961E-003      87.65  <-- SCF
      7  -5.18441691E+003 -2.90706355E+000  -1.08035558E-003      99.10  <-- SCF
      8  -5.18435625E+003 -2.71998764E+000  -1.83818526E-003     110.93  <-- SCF
      9  -5.18433960E+003 -2.59008851E+000  -5.04615515E-004     122.88  <-- SCF
     10  -5.18444915E+003 -2.26697012E+000   3.31960729E-003     134.67  <-- SCF
     11  -5.18275985E+003 -2.26027926E+000  -5.11908003E-002     146.09  <-- SCF
     12  -5.18418672E+003 -2.24602457E+000   4.32385894E-002     157.47  <-- SCF
     13  -5.18335105E+003 -2.22709300E+000  -2.53233682E-002     168.75  <-- SCF
     14  -5.18411942E+003 -2.20438361E+000   2.32837978E-002     180.22  <-- SCF
     15  -5.18395511E+003 -2.16407656E+000  -4.97909517E-003     191.20  <-- SCF
     16  -5.18417067E+003 -2.10810302E+000   6.53210542E-003     203.19  <-- SCF
     17  -5.18439100E+003 -2.04986019E+000   6.67691185E-003     215.20  <-- SCF
     18  -5.18451262E+003 -1.98914641E+000   3.68547326E-003     227.39  <-- SCF
     19  -5.18447658E+003 -1.95192499E+000  -1.09220394E-003     238.99  <-- SCF
     20  -5.18442776E+003 -1.93013667E+000  -1.47946253E-003     250.29  <-- SCF
     21  -5.18435478E+003 -1.91214314E+000  -2.21140113E-003     260.51  <-- SCF
     22  -5.18440742E+003 -1.88401424E+000   1.59490436E-003     270.27  <-- SCF
     23  -5.18451399E+003 -1.85582257E+000   3.22950702E-003     281.00  <-- SCF
     24  -5.18452185E+003 -1.83912348E+000   2.38113632E-004     291.64  <-- SCF
     25  -5.18452459E+003 -1.83353821E+000   8.31958964E-005     301.95  <-- SCF
     26  -5.18452596E+003 -1.83164915E+000   4.14037646E-005     311.91  <-- SCF
     27  -5.18452653E+003 -1.83071940E+000   1.72416768E-005     321.42  <-- SCF
     28  -5.18452669E+003 -1.82983482E+000   5.01654946E-006     331.13  <-- SCF
     29  -5.18452689E+003 -1.82888359E+000   6.02363191E-006     340.80  <-- SCF
     30  -5.18452696E+003 -1.82833618E+000   2.04101791E-006     350.80  <-- SCF
     31  -5.18452698E+003 -1.82802212E+000   7.33188019E-007     360.70  <-- SCF
     32  -5.18452701E+003 -1.82766486E+000   6.98843321E-007     370.41  <-- SCF
     33  -5.18452701E+003 -1.82748934E+000   5.53318720E-008     380.40  <-- SCF
------------------------------------------------------------------------ <-- SCF
 
Integrated Spin Density     =   -0.429821E-04 hbar/2                        
Integrated |Spin Density|   =    0.671127E-03 hbar/2                        
 
Final energy, E             =  -5184.462910751     eV
Final free energy (E-TS)    =  -5184.527008533     eV
(energies not corrected for finite basis set)
 
NB est. 0K energy (E-0.5TS)      =  -5184.494959642     eV
 
 WARNING: Your unit cell might be too small to get accurate results for van der Waals
(SEDC) Total Energy Correction : -0.274623E+01 eV

Dispersion corrected final energy*, Ecor          =  -5187.209135978     eV
Dispersion corrected final free energy* (Ecor-TS) =  -5187.273233761     eV
NB dispersion corrected est. 0K energy* (Ecor-0.5TS) =  -5187.241184870     eV

Writing analysis data to 4x4.castep_bin

Writing model to 4x4.check
 
+---------------- MEMORY AND SCRATCH DISK ESTIMATES PER PROCESS --------------+
|                                                     Memory          Disk    |
| Model and support data                               54.8 MB         0.0 MB |
| Electronic energy minimisation requirements          85.3 MB         0.0 MB |
| Geometry minimisation requirements                  103.8 MB         0.0 MB |
|                                               ----------------------------- |
| Approx. total storage required per process          243.8 MB         0.0 MB |
|                                                                             |
| Requirements will fluctuate during execution and may exceed these estimates |
+-----------------------------------------------------------------------------+
 
 
 ************************************** Forces **************************************
 *                                                                                  *
 *                           Cartesian components (eV/A)                            *
 * -------------------------------------------------------------------------------- *
 *                         x                    y                    z              *
 *                                                                                  *
 * H               1     -0.19486              0.00972             10.33791         *
 * C               1     -0.15095              0.49256              0.02577         *
 * C               2     -0.15323              0.10584              0.04096         *
 * C               3      0.35042             -0.41708              0.02513         *
 * C               4     -0.00410             -0.14135              0.04039         *
 * C               5      0.32314             -0.18371              0.00569         *
 * C               6     -0.01204             -0.26114              0.00119         *
 * C               7      0.00843              0.36728              0.00528         *
 * C               8     -0.24342              0.13987              0.00141         *
 * C               9      0.20367              0.50909              0.01428         *
 * C              10     -0.02177             -0.53088             -0.03881         *
 * C              11      0.30338             -0.00837             -6.24815         *
 * C              12     -2.78636             -1.60916             -1.52901         *
 * C              13      0.54098             -0.09706              0.02062         *
 * C              14     -0.47989              0.27668             -0.04222         *
 * C              15     -0.18727             -0.12986             -0.00771         *
 * C              16      0.21769              0.13911              0.00149         *
 * C              17     -0.00717              0.00098             -0.00311         *
 * C              18      0.11687              0.10425              0.03471         *
 * C              19     -0.34211             -0.43695              0.01368         *
 * C              20      2.65396             -1.52092             -1.33379         *
 * C              21     -0.51070             -0.13018              0.02060         *
 * C              22      0.01437              3.14522             -1.43336         *
 * C              23      0.03069             -0.02470             -0.00360         *
 * C              24      0.11454              0.07591              0.03808         *
 * C              25      0.03607             -0.01518             -0.00400         *
 * C              26      0.00647              0.00222             -0.00609         *
 * C              27      0.03430              0.22269             -0.00814         *
 * C              28     -0.03655             -0.15046              0.03445         *
 * C              29     -0.31005             -0.19464              0.00515         *
 * C              30      0.45033              0.29003             -0.03701         *
 * C              31      0.20874             -0.11616             -0.01001         *
 * C              32     -0.17357              0.08635              0.03821         *
 *                                                                                  *
 ************************************************************************************
 LBFGS: finished iteration     0 with enthalpy= -5.18727323E+003 eV
  
 +-----------+-----------------+-----------------+------------+-----+ <-- LBFGS
 | Parameter |      value      |    tolerance    |    units   | OK? | <-- LBFGS
 +-----------+-----------------+-----------------+------------+-----+ <-- LBFGS
 |  dE/ion   |   0.000000E+000 |   2.000000E-005 |         eV | No  | <-- LBFGS
 |  |F|max   |   1.033975E+001 |   1.000000E-002 |       eV/A | No  | <-- LBFGS
 |  |dR|max  |   0.000000E+000 |   1.000000E-003 |          A | No  | <-- LBFGS
 +-----------+-----------------+-----------------+------------+-----+ <-- LBFGS
  

================================================================================
 Starting LBFGS iteration          1 ...
================================================================================
  
 +------------+-------------+-------------+-----------------+ <-- min LBFGS
 |    Step    |   lambda    |   F.delta'  |    enthalpy     | <-- min LBFGS
 +------------+-------------+-------------+-----------------+ <-- min LBFGS
 |  previous  |    0.000000 |    7.433925 |    -5187.273234 | <-- min LBFGS
 +------------+-------------+-------------+-----------------+ <-- min LBFGS
  

--------------------------------------------------------------------------------
 LBFGS: starting iteration         1 with trial guess (lambda=  1.000000)
--------------------------------------------------------------------------------
 
                           -------------------------------
                                     Cell Contents
                           -------------------------------
 
            xxxxxxxxxxxxxxxxxxxxxxxxxxxxxxxxxxxxxxxxxxxxxxxxxxxxxxxxxxxxxxxxx
            x  Element         Atom        Fractional coordinates of atoms  x
            x                 Number           u          v          w      x
            x---------------------------------------------------------------x
            x  H                 1         0.412945   0.333380   0.550681   x
            x  C                 1         0.166589   0.083637   0.500013   x
            x  C                 2        -0.000179  -0.000037   0.500020   x
            x  C                 3         0.166540   0.332831   0.500013   x
            x  C                 4        -0.000246   0.249677   0.500019   x
            x  C                 5         0.166704   0.583225   0.500005   x
            x  C                 6        -0.000246   0.499690   0.500003   x
            x  C                 7         0.166730   0.833789   0.500005   x
            x  C                 8        -0.000187   0.750201   0.500003   x
            x  C                 9         0.416979   0.083653   0.500008   x
            x  C                10         0.249592  -0.000718   0.499986   x
            x  C                11         0.416845   0.333277   0.497392   x
            x  C                12         0.246704   0.248252   0.499364   x
            x  C                13         0.417077   0.583379   0.500011   x
            x  C                14         0.249618   0.500251   0.499985   x
            x  C                15         0.416435   0.833349   0.499999   x
            x  C                16         0.250213   0.750259   0.500003   x
            x  C                17         0.666708   0.083226   0.500001   x
            x  C                18         0.500155  -0.000050   0.500017   x
            x  C                19         0.666265   0.332928   0.500008   x
            x  C                20         0.501517   0.248374   0.499445   x
            x  C                21         0.666319   0.583382   0.500011   x
            x  C                22         0.501617   0.503128   0.499404   x
            x  C                23         0.666802   0.833511   0.500001   x
            x  C                24         0.500251   0.750267   0.500018   x
            x  C                25         0.916740   0.083257   0.500001   x
            x  C                26         0.750132  -0.000091   0.500000   x
            x  C                27         0.916908   0.333597   0.499999   x
            x  C                28         0.750048   0.249773   0.500017   x
            x  C                29         0.916478   0.583319   0.500005   x
            x  C                30         0.750738   0.500370   0.499987   x
            x  C                31         0.916889   0.833363   0.499998   x
            x  C                32         0.750097   0.750266   0.500018   x
            xxxxxxxxxxxxxxxxxxxxxxxxxxxxxxxxxxxxxxxxxxxxxxxxxxxxxxxxxxxxxxxxx
 
 
------------------------------------------------------------------------ <-- SCF
SCF loop      Energy           Fermi           Energy gain       Timer   <-- SCF
                               energy          per atom          (sec)   <-- SCF
------------------------------------------------------------------------ <-- SCF
Initial  -5.17912609E+003  0.00000000E+000                       389.78  <-- SCF
      1  -5.18539881E+003 -1.76299477E+000   1.90082539E-001     399.58  <-- SCF
      2  -5.18548467E+003 -1.76212500E+000   2.60171014E-003     413.51  <-- SCF
      3  -5.18538336E+003 -1.81902356E+000  -3.07009417E-003     425.70  <-- SCF
      4  -5.18538025E+003 -1.80813251E+000  -9.40789507E-005     437.61  <-- SCF
      5  -5.18538071E+003 -1.81026010E+000   1.37643625E-005     451.31  <-- SCF
      6  -5.18538069E+003 -1.80907833E+000  -4.17799660E-007     461.18  <-- SCF
      7  -5.18538071E+003 -1.80918339E+000   5.37213913E-007     470.84  <-- SCF
      8  -5.18538072E+003 -1.80912682E+000   3.89171047E-007     480.23  <-- SCF
------------------------------------------------------------------------ <-- SCF
 
Integrated Spin Density     =   -0.174515E-04 hbar/2                        
Integrated |Spin Density|   =    0.814888E-03 hbar/2                        
 
Final energy, E             =  -5185.316799062     eV
Final free energy (E-TS)    =  -5185.380724284     eV
(energies not corrected for finite basis set)
 
NB est. 0K energy (E-0.5TS)      =  -5185.348761673     eV
 
(SEDC) Total Energy Correction : -0.275180E+01 eV

Dispersion corrected final energy*, Ecor          =  -5188.068597351     eV
Dispersion corrected final free energy* (Ecor-TS) =  -5188.132522573     eV
NB dispersion corrected est. 0K energy* (Ecor-0.5TS) =  -5188.100559962     eV
 
 ************************************** Forces **************************************
 *                                                                                  *
 *                           Cartesian components (eV/A)                            *
 * -------------------------------------------------------------------------------- *
 *                         x                    y                    z              *
 *                                                                                  *
 * H               1      0.02334              0.00422              2.78044         *
 * C               1     -0.31277             -0.30617             -0.05119         *
 * C               2     -0.04318              0.00025              0.06421         *
 * C               3     -0.41413             -0.12476             -0.05317         *
 * C               4     -0.02502             -0.03567              0.06395         *
 * C               5      0.06901             -0.03913              0.01259         *
 * C               6     -0.00085             -0.10836              0.00045         *
 * C               7     -0.00283              0.08283              0.01141         *
 * C               8     -0.09631              0.05519              0.00061         *
 * C               9      0.31126             -0.28098             -0.05087         *
 * C              10      0.00182              0.04696             -0.04432         *
 * C              11     -0.10950              0.00248              1.16255         *
 * C              12     -0.86618             -0.51276             -1.35505         *
 * C              13     -0.09352              0.41062             -0.05220         *
 * C              14      0.03325             -0.01697             -0.04695         *
 * C              15     -0.03011             -0.01813              0.00820         *
 * C              16      0.09051              0.05644              0.00080         *
 * C              17      0.05532             -0.03218             -0.00418         *
 * C              18      0.04211              0.00500              0.05961         *
 * C              19      0.40429             -0.13450             -0.04999         *
 * C              20      0.93726             -0.52485             -1.24445         *
 * C              21      0.10121              0.41691             -0.04945         *
 * C              22      0.02809              1.03651             -1.29967         *
 * C              23      0.00551              0.06158             -0.00450         *
 * C              24      0.01577              0.03945              0.06208         *
 * C              25     -0.04817             -0.03573             -0.00478         *
 * C              26      0.01074             -0.00355             -0.02004         *
 * C              27      0.00957              0.03020              0.00816         *
 * C              28      0.01692             -0.03855              0.05926         *
 * C              29     -0.07283             -0.04291              0.01071         *
 * C              30     -0.03588             -0.02041             -0.04347         *
 * C              31      0.02218             -0.01077              0.00725         *
 * C              32     -0.02690              0.03773              0.06195         *
 *                                                                                  *
 ************************************************************************************
  
 +------------+-------------+-------------+-----------------+ <-- min LBFGS
 |    Step    |   lambda    |   F.delta'  |    enthalpy     | <-- min LBFGS
 +------------+-------------+-------------+-----------------+ <-- min LBFGS
 |  previous  |    0.000000 |    7.433925 |    -5187.273234 | <-- min LBFGS
 | trial step |    1.000000 |    1.461353 |    -5188.132523 | <-- min LBFGS
 +------------+-------------+-------------+-----------------+ <-- min LBFGS
  
 LBFGS: finished iteration     1 with enthalpy= -5.18813252E+003 eV
  
 +-----------+-----------------+-----------------+------------+-----+ <-- LBFGS
 | Parameter |      value      |    tolerance    |    units   | OK? | <-- LBFGS
 +-----------+-----------------+-----------------+------------+-----+ <-- LBFGS
 |  dE/ion   |   2.603905E-002 |   2.000000E-005 |         eV | No  | <-- LBFGS
 |  |F|max   |   2.780545E+000 |   1.000000E-002 |       eV/A | No  | <-- LBFGS
 |  |dR|max  |   8.656248E-002 |   1.000000E-003 |          A | No  | <-- LBFGS
 +-----------+-----------------+-----------------+------------+-----+ <-- LBFGS
  

================================================================================
 Starting LBFGS iteration          2 ...
================================================================================
  
 +------------+-------------+-------------+-----------------+ <-- min LBFGS
 |    Step    |   lambda    |   F.delta'  |    enthalpy     | <-- min LBFGS
 +------------+-------------+-------------+-----------------+ <-- min LBFGS
 |  previous  |    0.000000 |    2.177670 |    -5188.132523 | <-- min LBFGS
 +------------+-------------+-------------+-----------------+ <-- min LBFGS
  

--------------------------------------------------------------------------------
 LBFGS: starting iteration         2 with trial guess (lambda=  1.000000)
--------------------------------------------------------------------------------
 
                           -------------------------------
                                     Cell Contents
                           -------------------------------
 
            xxxxxxxxxxxxxxxxxxxxxxxxxxxxxxxxxxxxxxxxxxxxxxxxxxxxxxxxxxxxxxxxx
            x  Element         Atom        Fractional coordinates of atoms  x
            x                 Number           u          v          w      x
            x---------------------------------------------------------------x
            x  H                 1         0.412957   0.333386   0.552541   x
            x  C                 1         0.166084   0.083310   0.499988   x
            x  C                 2        -0.000231  -0.000026   0.500055   x
            x  C                 3         0.166036   0.332639   0.499986   x
            x  C                 4        -0.000301   0.249620   0.500054   x
            x  C                 5         0.166770   0.583160   0.500012   x
            x  C                 6        -0.000326   0.499534   0.500003   x
            x  C                 7         0.166795   0.833924   0.500011   x
            x  C                 8        -0.000268   0.750282   0.500003   x
            x  C                 9         0.417176   0.083358   0.499983   x
            x  C                10         0.249596  -0.000711   0.499962   x
            x  C                11         0.416755   0.333279   0.497746   x
            x  C                12         0.245177   0.247477   0.498597   x
            x  C                13         0.417268   0.583870   0.499985   x
            x  C                14         0.249617   0.500257   0.499959   x
            x  C                15         0.416371   0.833315   0.500003   x
            x  C                16         0.250367   0.750341   0.500004   x
            x  C                17         0.666746   0.083187   0.499999   x
            x  C                18         0.500217  -0.000034   0.500049   x
            x  C                19         0.666561   0.332723   0.499983   x
            x  C                20         0.502330   0.247592   0.498744   x
            x  C                21         0.666632   0.583878   0.499986   x
            x  C                22         0.502426   0.504686   0.498670   x
            x  C                23         0.666846   0.833583   0.499999   x
            x  C                24         0.500304   0.750322   0.500052   x
            x  C                25         0.916670   0.083212   0.499998   x
            x  C                26         0.750142  -0.000095   0.499989   x
            x  C                27         0.916950   0.333654   0.500003   x
            x  C                28         0.750032   0.249712   0.500049   x
            x  C                29         0.916340   0.583248   0.500010   x
            x  C                30         0.750738   0.500372   0.499963   x
            x  C                31         0.916917   0.833339   0.500002   x
            x  C                32         0.750082   0.750320   0.500052   x
            xxxxxxxxxxxxxxxxxxxxxxxxxxxxxxxxxxxxxxxxxxxxxxxxxxxxxxxxxxxxxxxxx
 
 
------------------------------------------------------------------------ <-- SCF
SCF loop      Energy           Fermi           Energy gain       Timer   <-- SCF
                               energy          per atom          (sec)   <-- SCF
------------------------------------------------------------------------ <-- SCF
Initial  -5.18411390E+003  0.00000000E+000                       485.58  <-- SCF
      1  -5.18555979E+003 -1.84963017E+000   4.38146025E-002     495.00  <-- SCF
      2  -5.18556688E+003 -1.85004946E+000   2.15047990E-004     509.93  <-- SCF
      3  -5.18556080E+003 -1.85349169E+000  -1.84454132E-004     522.06  <-- SCF
      4  -5.18556061E+003 -1.85022784E+000  -5.78994155E-006     533.80  <-- SCF
      5  -5.18556067E+003 -1.85025007E+000   1.97565020E-006     543.79  <-- SCF
      6  -5.18556067E+003 -1.84983440E+000  -1.15276032E-007     553.65  <-- SCF
      7  -5.18556066E+003 -1.84968725E+000  -1.17727715E-007     563.64  <-- SCF
      8  -5.18556067E+003 -1.84959498E+000   2.17190580E-007     573.62  <-- SCF
------------------------------------------------------------------------ <-- SCF
 
Integrated Spin Density     =   -0.283431E-04 hbar/2                        
Integrated |Spin Density|   =    0.532869E-03 hbar/2                        
 
Final energy, E             =  -5185.492362128     eV
Final free energy (E-TS)    =  -5185.560669870     eV
(energies not corrected for finite basis set)
 
NB est. 0K energy (E-0.5TS)      =  -5185.526515999     eV
 
(SEDC) Total Energy Correction : -0.275202E+01 eV

Dispersion corrected final energy*, Ecor          =  -5188.244382004     eV
Dispersion corrected final free energy* (Ecor-TS) =  -5188.312689746     eV
NB dispersion corrected est. 0K energy* (Ecor-0.5TS) =  -5188.278535875     eV
 
 ************************************** Forces **************************************
 *                                                                                  *
 *                           Cartesian components (eV/A)                            *
 * -------------------------------------------------------------------------------- *
 *                         x                    y                    z              *
 *                                                                                  *
 * H               1      0.06184              0.00261              1.67567         *
 * C               1     -0.21355             -0.28810             -0.14368         *
 * C               2     -0.11882             -0.12601              0.05675         *
 * C               3     -0.34835             -0.05141             -0.14545         *
 * C               4     -0.16854             -0.04110              0.05666         *
 * C               5      0.02222             -0.01173              0.01869         *
 * C               6     -0.00179             -0.01106              0.00063         *
 * C               7      0.00049              0.02529              0.01735         *
 * C               8     -0.01693              0.00951              0.00055         *
 * C               9      0.22186             -0.28228             -0.13392         *
 * C              10     -0.00056              0.06871             -0.02294         *
 * C              11     -0.07483             -0.00119              1.99067         *
 * C              12     -0.26456             -0.14917             -1.11435         *
 * C              13     -0.12693              0.32767             -0.14015         *
 * C              14      0.05322             -0.03054             -0.02516         *
 * C              15      0.04943              0.03079              0.02734         *
 * C              16      0.00495              0.00899              0.00104         *
 * C              17      0.04703             -0.02653              0.00118         *
 * C              18      0.11537             -0.12361              0.05242         *
 * C              19      0.36182             -0.04504             -0.13287         *
 * C              20      0.24776             -0.14301             -1.02592         *
 * C              21      0.14853              0.33126             -0.13736         *
 * C              22     -0.00213              0.29689             -1.06947         *
 * C              23      0.00100              0.04461              0.00107         *
 * C              24     -0.05264              0.16483              0.05467         *
 * C              25     -0.03595             -0.02447              0.00098         *
 * C              26      0.00356             -0.00010             -0.02074         *
 * C              27      0.00107             -0.06110              0.02776         *
 * C              28      0.16840             -0.04041              0.05231         *
 * C              29     -0.02140             -0.01518              0.01635         *
 * C              30     -0.05622             -0.03337             -0.02264         *
 * C              31     -0.05254              0.02897              0.02793         *
 * C              32      0.04719              0.16527              0.05464         *
 *                                                                                  *
 ************************************************************************************
  
 +------------+-------------+-------------+-----------------+ <-- min LBFGS
 |    Step    |   lambda    |   F.delta'  |    enthalpy     | <-- min LBFGS
 +------------+-------------+-------------+-----------------+ <-- min LBFGS
 |  previous  |    0.000000 |    2.177670 |    -5188.132523 | <-- min LBFGS
 | trial step |    1.000000 |    1.420764 |    -5188.312690 | <-- min LBFGS
 +------------+-------------+-------------+-----------------+ <-- min LBFGS
  

--------------------------------------------------------------------------------
 LBFGS: improving iteration         2 with line minimization (lambda=  2.877067)
--------------------------------------------------------------------------------
 
                           -------------------------------
                                     Cell Contents
                           -------------------------------
 
            xxxxxxxxxxxxxxxxxxxxxxxxxxxxxxxxxxxxxxxxxxxxxxxxxxxxxxxxxxxxxxxxx
            x  Element         Atom        Fractional coordinates of atoms  x
            x                 Number           u          v          w      x
            x---------------------------------------------------------------x
            x  H                 1         0.412979   0.333397   0.556033   x
            x  C                 1         0.165135   0.082697   0.499940   x
            x  C                 2        -0.000331  -0.000007   0.500120   x
            x  C                 3         0.165091   0.332281   0.499936   x
            x  C                 4        -0.000405   0.249514   0.500120   x
            x  C                 5         0.166895   0.583038   0.500024   x
            x  C                 6        -0.000477   0.499240   0.500004   x
            x  C                 7         0.166918   0.834178   0.500022   x
            x  C                 8        -0.000420   0.750432   0.500004   x
            x  C                 9         0.417547   0.082806   0.499934   x
            x  C                10         0.249603  -0.000697   0.499915   x
            x  C                11         0.416587   0.333284   0.498411   x
            x  C                12         0.242309   0.246021   0.497160   x
            x  C                13         0.417626   0.584792   0.499935   x
            x  C                14         0.249614   0.500267   0.499910   x
            x  C                15         0.416251   0.833251   0.500011   x
            x  C                16         0.250656   0.750494   0.500004   x
            x  C                17         0.666818   0.083113   0.499995   x
            x  C                18         0.500333  -0.000004   0.500110   x
            x  C                19         0.667117   0.332339   0.499935   x
            x  C                20         0.503856   0.246124   0.497429   x
            x  C                21         0.667220   0.584808   0.499939   x
            x  C                22         0.503946   0.507609   0.497293   x
            x  C                23         0.666930   0.833720   0.499994   x
            x  C                24         0.500405   0.750426   0.500116   x
            x  C                25         0.916538   0.083128   0.499993   x
            x  C                26         0.750160  -0.000103   0.499969   x
            x  C                27         0.917028   0.333763   0.500010   x
            x  C                28         0.750003   0.249597   0.500110   x
            x  C                29         0.916083   0.583116   0.500021   x
            x  C                30         0.750738   0.500376   0.499918   x
            x  C                31         0.916970   0.833294   0.500008   x
            x  C                32         0.750053   0.750421   0.500116   x
            xxxxxxxxxxxxxxxxxxxxxxxxxxxxxxxxxxxxxxxxxxxxxxxxxxxxxxxxxxxxxxxxx
 
 
------------------------------------------------------------------------ <-- SCF
SCF loop      Energy           Fermi           Energy gain       Timer   <-- SCF
                               energy          per atom          (sec)   <-- SCF
------------------------------------------------------------------------ <-- SCF
Initial  -5.18214021E+003  0.00000000E+000                       578.97  <-- SCF
      1  -5.18568248E+003 -1.93634021E+000   1.07341403E-001     588.36  <-- SCF
      2  -5.18572199E+003 -1.93913966E+000   1.19730816E-003     602.65  <-- SCF
      3  -5.18570155E+003 -1.93833313E+000  -6.19320760E-004     614.82  <-- SCF
      4  -5.18570069E+003 -1.93531559E+000  -2.61468131E-005     626.69  <-- SCF
      5  -5.18570077E+003 -1.93450564E+000   2.36829709E-006     638.49  <-- SCF
      6  -5.18570078E+003 -1.93403133E+000   4.13515924E-007     648.43  <-- SCF
      7  -5.18570082E+003 -1.93387679E+000   1.24772374E-006     657.96  <-- SCF
      8  -5.18570087E+003 -1.93382404E+000   1.57671585E-006     667.75  <-- SCF
      9  -5.18570094E+003 -1.93379428E+000   1.96711528E-006     677.69  <-- SCF
     10  -5.18570099E+003 -1.93382577E+000   1.49144071E-006     687.81  <-- SCF
     11  -5.18570100E+003 -1.93385437E+000   4.19526954E-007     697.94  <-- SCF
     12  -5.18570101E+003 -1.93388431E+000   3.17993291E-007     707.85  <-- SCF
------------------------------------------------------------------------ <-- SCF
 
Integrated Spin Density     =   -0.183122E-04 hbar/2                        
Integrated |Spin Density|   =    0.532310E-03 hbar/2                        
 
Final energy, E             =  -5185.623761226     eV
Final free energy (E-TS)    =  -5185.701011220     eV
(energies not corrected for finite basis set)
 
NB est. 0K energy (E-0.5TS)      =  -5185.662386223     eV
 
(SEDC) Total Energy Correction : -0.275271E+01 eV

Dispersion corrected final energy*, Ecor          =  -5188.376466874     eV
Dispersion corrected final free energy* (Ecor-TS) =  -5188.453716868     eV
NB dispersion corrected est. 0K energy* (Ecor-0.5TS) =  -5188.415091871     eV
 
 ************************************** Forces **************************************
 *                                                                                  *
 *                           Cartesian components (eV/A)                            *
 * -------------------------------------------------------------------------------- *
 *                         x                    y                    z              *
 *                                                                                  *
 * H               1      0.10953             -0.00041              0.05297         *
 * C               1     -0.01871             -0.25190             -0.31212         *
 * C               2     -0.26450             -0.37045              0.04586         *
 * C               3     -0.21915              0.09368             -0.31428         *
 * C               4     -0.44433             -0.05203              0.04597         *
 * C               5     -0.06851              0.04121              0.02968         *
 * C               6     -0.00370              0.17400              0.00089         *
 * C               7      0.00611             -0.08586              0.02831         *
 * C               8      0.13376             -0.07719              0.00027         *
 * C               9      0.04485             -0.28654             -0.28483         *
 * C              10     -0.00408              0.11396              0.01744         *
 * C              11     -0.00627             -0.00664              3.01375         *
 * C              12      0.81814              0.50597             -0.65453         *
 * C              13     -0.19382              0.16442             -0.30080         *
 * C              14      0.09481             -0.05849              0.01663         *
 * C              15      0.20034              0.12510              0.06482         *
 * C              16     -0.15785             -0.08112              0.00141         *
 * C              17      0.03287             -0.01662              0.01077         *
 * C              18      0.25732             -0.37224              0.04185         *
 * C              19      0.27992              0.13232             -0.28297         *
 * C              20     -0.98355              0.53624             -0.60391         *
 * C              21      0.24152              0.16381             -0.29663         *
 * C              22     -0.05976             -1.02896             -0.62871         *
 * C              23     -0.00803              0.01321              0.01120         *
 * C              24     -0.18344              0.40562              0.04367         *
 * C              25     -0.01376             -0.00306              0.01147         *
 * C              26     -0.01108              0.00710             -0.02210         *
 * C              27     -0.01630             -0.23507              0.06614         *
 * C              28      0.46174             -0.04433              0.04214         *
 * C              29      0.07769              0.03896              0.02673         *
 * C              30     -0.09785             -0.06080              0.01671         *
 * C              31     -0.19475              0.10465              0.06822         *
 * C              32      0.19083              0.41146              0.04396         *
 *                                                                                  *
 ************************************************************************************
  
 +------------+-------------+-------------+-----------------+ <-- min LBFGS
 |    Step    |   lambda    |   F.delta'  |    enthalpy     | <-- min LBFGS
 +------------+-------------+-------------+-----------------+ <-- min LBFGS
 |  previous  |    0.000000 |    2.177670 |    -5188.132523 | <-- min LBFGS
 | trial step |    1.000000 |    1.420764 |    -5188.312690 | <-- min LBFGS
 |  line step |    2.877067 |    0.145784 |    -5188.453717 | <-- min LBFGS
 +------------+-------------+-------------+-----------------+ <-- min LBFGS
  
 LBFGS: finished iteration     2 with enthalpy= -5.18845372E+003 eV
  
 +-----------+-----------------+-----------------+------------+-----+ <-- LBFGS
 | Parameter |      value      |    tolerance    |    units   | OK? | <-- LBFGS
 +-----------+-----------------+-----------------+------------+-----+ <-- LBFGS
 |  dE/ion   |   9.733160E-003 |   2.000000E-005 |         eV | No  | <-- LBFGS
 |  |F|max   |   3.013763E+000 |   1.000000E-002 |       eV/A | No  | <-- LBFGS
 |  |dR|max  |   1.072361E-001 |   1.000000E-003 |          A | No  | <-- LBFGS
 +-----------+-----------------+-----------------+------------+-----+ <-- LBFGS
  

================================================================================
 Starting LBFGS iteration          3 ...
================================================================================
  
 +------------+-------------+-------------+-----------------+ <-- min LBFGS
 |    Step    |   lambda    |   F.delta'  |    enthalpy     | <-- min LBFGS
 +------------+-------------+-------------+-----------------+ <-- min LBFGS
 |  previous  |    0.000000 |    1.704092 |    -5188.453717 | <-- min LBFGS
 +------------+-------------+-------------+-----------------+ <-- min LBFGS
  

--------------------------------------------------------------------------------
 LBFGS: starting iteration         3 with trial guess (lambda=  1.000000)
--------------------------------------------------------------------------------
 
                           -------------------------------
                                     Cell Contents
                           -------------------------------
 
            xxxxxxxxxxxxxxxxxxxxxxxxxxxxxxxxxxxxxxxxxxxxxxxxxxxxxxxxxxxxxxxxx
            x  Element         Atom        Fractional coordinates of atoms  x
            x                 Number           u          v          w      x
            x---------------------------------------------------------------x
            x  H                 1         0.413075   0.333401   0.557423   x
            x  C                 1         0.164696   0.082271   0.499785   x
            x  C                 2        -0.000801  -0.000383   0.500163   x
            x  C                 3         0.164650   0.332241   0.499781   x
            x  C                 4        -0.000872   0.249417   0.500162   x
            x  C                 5         0.166906   0.583032   0.500042   x
            x  C                 6        -0.000445   0.499314   0.500004   x
            x  C                 7         0.166928   0.834191   0.500039   x
            x  C                 8        -0.000396   0.750407   0.500005   x
            x  C                 9         0.417581   0.082364   0.499792   x
            x  C                10         0.249644  -0.000606   0.499908   x
            x  C                11         0.416541   0.333277   0.499804   x
            x  C                12         0.242221   0.245997   0.496376   x
            x  C                13         0.417675   0.585247   0.499786   x
            x  C                14         0.249652   0.500225   0.499901   x
            x  C                15         0.416446   0.833354   0.500042   x
            x  C                16         0.250577   0.750466   0.500005   x
            x  C                17         0.666861   0.083073   0.499998   x
            x  C                18         0.500417  -0.000379   0.500149   x
            x  C                19         0.667583   0.332330   0.499794   x
            x  C                20         0.503817   0.246133   0.496711   x
            x  C                21         0.667678   0.585263   0.499793   x
            x  C                22         0.503926   0.507640   0.496543   x
            x  C                23         0.666957   0.833775   0.499997   x
            x  C                24         0.500491   0.750889   0.500156   x
            x  C                25         0.916484   0.083097   0.499997   x
            x  C                26         0.750160  -0.000098   0.499953   x
            x  C                27         0.916924   0.333564   0.500042   x
            x  C                28         0.750383   0.249506   0.500148   x
            x  C                29         0.916071   0.583104   0.500037   x
            x  C                30         0.750650   0.500332   0.499910   x
            x  C                31         0.916872   0.833382   0.500040   x
            x  C                32         0.750426   0.750890   0.500156   x
            xxxxxxxxxxxxxxxxxxxxxxxxxxxxxxxxxxxxxxxxxxxxxxxxxxxxxxxxxxxxxxxxx
 
 
------------------------------------------------------------------------ <-- SCF
SCF loop      Energy           Fermi           Energy gain       Timer   <-- SCF
                               energy          per atom          (sec)   <-- SCF
------------------------------------------------------------------------ <-- SCF
Initial  -5.18453157E+003  0.00000000E+000                       713.21  <-- SCF
      1  -5.18581302E+003 -1.99360977E+000   3.88318074E-002     722.84  <-- SCF
      2  -5.18582110E+003 -1.99391266E+000   2.44645746E-004     737.48  <-- SCF
      3  -5.18581698E+003 -1.98352846E+000  -1.24736992E-004     749.80  <-- SCF
      4  -5.18581727E+003 -1.98476154E+000   8.89642157E-006     762.08  <-- SCF
      5  -5.18581726E+003 -1.98357513E+000  -3.03888504E-007     772.20  <-- SCF
      6  -5.18581726E+003 -1.98365460E+000   2.08403463E-008     782.12  <-- SCF
      7  -5.18581728E+003 -1.98364677E+000   5.14074946E-007     791.65  <-- SCF
------------------------------------------------------------------------ <-- SCF
 
Integrated Spin Density     =   -0.561259E-04 hbar/2                        
Integrated |Spin Density|   =    0.919673E-03 hbar/2                        
 
Final energy, E             =  -5185.734645480     eV
Final free energy (E-TS)    =  -5185.817280454     eV
(energies not corrected for finite basis set)
 
NB est. 0K energy (E-0.5TS)      =  -5185.775962967     eV
 
(SEDC) Total Energy Correction : -0.275221E+01 eV

Dispersion corrected final energy*, Ecor          =  -5188.486852158     eV
Dispersion corrected final free energy* (Ecor-TS) =  -5188.569487132     eV
NB dispersion corrected est. 0K energy* (Ecor-0.5TS) =  -5188.528169645     eV
 
 ************************************** Forces **************************************
 *                                                                                  *
 *                           Cartesian components (eV/A)                            *
 * -------------------------------------------------------------------------------- *
 *                         x                    y                    z              *
 *                                                                                  *
 * H               1      0.11317             -0.00190             -0.04946         *
 * C               1      0.03180             -0.01088             -0.37475         *
 * C               2     -0.17292             -0.20965              0.01573         *
 * C               3      0.00353              0.03633             -0.37618         *
 * C               4     -0.26394             -0.05532              0.01574         *
 * C               5     -0.08151              0.04705              0.03637         *
 * C               6     -0.00417              0.11822              0.00614         *
 * C               7     -0.00086             -0.10025              0.03513         *
 * C               8      0.09300             -0.05534              0.00510         *
 * C               9     -0.03407             -0.02900             -0.34213         *
 * C              10      0.00263              0.02074              0.02178         *
 * C              11     -0.01804             -0.00366              2.64657         *
 * C              12      0.70643              0.42470             -0.35706         *
 * C              13     -0.03463             -0.01498             -0.36018         *
 * C              14      0.02174             -0.01252              0.02113         *
 * C              15      0.08584              0.05410              0.07951         *
 * C              16     -0.10681             -0.05462              0.00685         *
 * C              17      0.07216             -0.04190              0.01773         *
 * C              18      0.18161             -0.20929              0.01319         *
 * C              19      0.00654              0.05188             -0.34081         *
 * C              20     -0.80417              0.44951             -0.31725         *
 * C              21      0.03652             -0.01928             -0.35727         *
 * C              22     -0.02994             -0.86429             -0.33764         *
 * C              23     -0.00873              0.06657              0.01856         *
 * C              24     -0.08545              0.25772              0.01414         *
 * C              25     -0.05945             -0.02935              0.01920         *
 * C              26     -0.01146              0.00421             -0.00850         *
 * C              27     -0.01010             -0.10169              0.08128         *
 * C              28      0.27731             -0.05153              0.01363         *
 * C              29      0.09196              0.05305              0.03330         *
 * C              30     -0.01294             -0.01397              0.02132         *
 * C              31     -0.08190              0.04213              0.08412         *
 * C              32      0.09681              0.25320              0.01468         *
 *                                                                                  *
 ************************************************************************************
  
 +------------+-------------+-------------+-----------------+ <-- min LBFGS
 |    Step    |   lambda    |   F.delta'  |    enthalpy     | <-- min LBFGS
 +------------+-------------+-------------+-----------------+ <-- min LBFGS
 |  previous  |    0.000000 |    1.704092 |    -5188.453717 | <-- min LBFGS
 | trial step |    1.000000 |    1.248796 |    -5188.569487 | <-- min LBFGS
 +------------+-------------+-------------+-----------------+ <-- min LBFGS
  

--------------------------------------------------------------------------------
 LBFGS: improving iteration         3 with line minimization (lambda=  3.742822)
--------------------------------------------------------------------------------
 
                           -------------------------------
                                     Cell Contents
                           -------------------------------
 
            xxxxxxxxxxxxxxxxxxxxxxxxxxxxxxxxxxxxxxxxxxxxxxxxxxxxxxxxxxxxxxxxx
            x  Element         Atom        Fractional coordinates of atoms  x
            x                 Number           u          v          w      x
            x---------------------------------------------------------------x
            x  H                 1         0.413339   0.333411   0.561236   x
            x  C                 1         0.163491   0.081103   0.499363   x
            x  C                 2        -0.002091  -0.001414   0.500278   x
            x  C                 3         0.163442   0.332132   0.499353   x
            x  C                 4        -0.002155   0.249152   0.500278   x
            x  C                 5         0.166933   0.583014   0.500090   x
            x  C                 6        -0.000357   0.499518   0.500006   x
            x  C                 7         0.166958   0.834224   0.500084   x
            x  C                 8        -0.000328   0.750339   0.500006   x
            x  C                 9         0.417672   0.081151   0.499401   x
            x  C                10         0.249756  -0.000356   0.499887   x
            x  C                11         0.416415   0.333261   0.503627   x
            x  C                12         0.241978   0.245929   0.494225   x
            x  C                13         0.417807   0.586496   0.499375   x
            x  C                14         0.249755   0.500113   0.499876   x
            x  C                15         0.416984   0.833636   0.500127   x
            x  C                16         0.250359   0.750388   0.500008   x
            x  C                17         0.666980   0.082962   0.500007   x
            x  C                18         0.500649  -0.001406   0.500255   x
            x  C                19         0.668862   0.332306   0.499406   x
            x  C                20         0.503710   0.246157   0.494743   x
            x  C                21         0.668934   0.586511   0.499389   x
            x  C                22         0.503871   0.507724   0.494484   x
            x  C                23         0.667030   0.833926   0.500007   x
            x  C                24         0.500727   0.752157   0.500267   x
            x  C                25         0.916335   0.083013   0.500006   x
            x  C                26         0.750159  -0.000084   0.499908   x
            x  C                27         0.916636   0.333018   0.500129   x
            x  C                28         0.751426   0.249254   0.500254   x
            x  C                29         0.916037   0.583069   0.500079   x
            x  C                30         0.750410   0.500210   0.499889   x
            x  C                31         0.916604   0.833625   0.500129   x
            x  C                32         0.751450   0.752175   0.500267   x
            xxxxxxxxxxxxxxxxxxxxxxxxxxxxxxxxxxxxxxxxxxxxxxxxxxxxxxxxxxxxxxxxx
 
 
------------------------------------------------------------------------ <-- SCF
SCF loop      Energy           Fermi           Energy gain       Timer   <-- SCF
                               energy          per atom          (sec)   <-- SCF
------------------------------------------------------------------------ <-- SCF
Initial  -5.17839277E+003  0.00000000E+000                       797.00  <-- SCF
      1  -5.18578188E+003 -2.14906972E+000   2.23912273E-001     806.48  <-- SCF
      2  -5.18596142E+003 -2.15496718E+000   5.44056096E-003     820.23  <-- SCF
      3  -5.18593478E+003 -2.12727937E+000  -8.07339859E-004     832.55  <-- SCF
      4  -5.18593541E+003 -2.13144439E+000   1.92208539E-005     844.45  <-- SCF
      5  -5.18593534E+003 -2.12755913E+000  -2.16769743E-006     856.78  <-- SCF
      6  -5.18593541E+003 -2.12820590E+000   2.22739746E-006     866.78  <-- SCF
      7  -5.18593556E+003 -2.12809689E+000   4.47902476E-006     876.22  <-- SCF
      8  -5.18593573E+003 -2.12826124E+000   5.08930377E-006     885.86  <-- SCF
      9  -5.18593591E+003 -2.12862364E+000   5.50069228E-006     895.73  <-- SCF
     10  -5.18593602E+003 -2.12896537E+000   3.29386853E-006     905.81  <-- SCF
     11  -5.18593605E+003 -2.12912780E+000   1.04148642E-006     915.90  <-- SCF
     12  -5.18593608E+003 -2.12934799E+000   9.60969621E-007     925.82  <-- SCF
     13  -5.18593613E+003 -2.12977961E+000   1.24735760E-006     935.81  <-- SCF
     14  -5.18593613E+003 -2.12990941E+000   8.50229171E-008     945.91  <-- SCF
     15  -5.18593613E+003 -2.13032755E+000   1.49302092E-008     955.76  <-- SCF
------------------------------------------------------------------------ <-- SCF
 
Integrated Spin Density     =   -0.857697E-04 hbar/2                        
Integrated |Spin Density|   =    0.265617E-03 hbar/2                        
 
Final energy, E             =  -5185.838816681     eV
Final free energy (E-TS)    =  -5185.936128507     eV
(energies not corrected for finite basis set)
 
NB est. 0K energy (E-0.5TS)      =  -5185.887472594     eV
 
(SEDC) Total Energy Correction : -0.275080E+01 eV

Dispersion corrected final energy*, Ecor          =  -5188.589614713     eV
Dispersion corrected final free energy* (Ecor-TS) =  -5188.686926539     eV
NB dispersion corrected est. 0K energy* (Ecor-0.5TS) =  -5188.638270626     eV
 
 ************************************** Forces **************************************
 *                                                                                  *
 *                           Cartesian components (eV/A)                            *
 * -------------------------------------------------------------------------------- *
 *                         x                    y                    z              *
 *                                                                                  *
 * H               1      0.11165             -0.00553             -0.33155         *
 * C               1      0.16336              0.61682             -0.54804         *
 * C               2      0.08955              0.24350             -0.06970         *
 * C               3      0.58141             -0.10585             -0.54682         *
 * C               4      0.25154             -0.06785             -0.07058         *
 * C               5     -0.12064              0.06498              0.05466         *
 * C               6     -0.00139             -0.03333              0.02001         *
 * C               7     -0.02468             -0.13661              0.05416         *
 * C               8     -0.01180              0.00047              0.01783         *
 * C               9     -0.25192              0.64282             -0.50252         *
 * C              10      0.02458             -0.23291              0.03531         *
 * C              11     -0.04952              0.00655              1.45535         *
 * C              12      0.49623              0.25679              0.53534         *
 * C              13      0.37278             -0.48591             -0.52448         *
 * C              14     -0.17107              0.10848              0.03625         *
 * C              15     -0.24123             -0.14468              0.12116         *
 * C              16      0.03396              0.01366              0.02120         *
 * C              17      0.17556             -0.10843              0.03549         *
 * C              18     -0.02831              0.25090             -0.06843         *
 * C              19     -0.70938             -0.14708             -0.50300         *
 * C              20     -0.40391              0.25957              0.53392         *
 * C              21     -0.49546             -0.49607             -0.52607         *
 * C              22      0.04791             -0.52337              0.53096         *
 * C              23     -0.01452              0.21684              0.03758         *
[...]
  C              15   up:     0.513   1.487   0.000   0.000   2.000    -0.001       -0.000
                 15   dn:     0.513   1.487   0.000   0.000   2.000
  C              16   up:     0.515   1.487   0.000   0.000   2.001    -0.002       -0.000
                 16   dn:     0.514   1.487   0.000   0.000   2.001
  C              17   up:     0.513   1.487   0.000   0.000   2.000    -0.001        0.000
                 17   dn:     0.513   1.487   0.000   0.000   2.000
  C              18   up:     0.513   1.486   0.000   0.000   1.999     0.001       -0.000
                 18   dn:     0.513   1.486   0.000   0.000   2.000
  C              19   up:     0.513   1.491   0.000   0.000   2.004    -0.008       -0.000
                 19   dn:     0.513   1.491   0.000   0.000   2.004
  C              20   up:     0.519   1.471   0.000   0.000   1.990     0.020       -0.000
                 20   dn:     0.519   1.471   0.000   0.000   1.990
  C              21   up:     0.513   1.491   0.000   0.000   2.004    -0.008        0.000
                 21   dn:     0.513   1.491   0.000   0.000   2.004
  C              22   up:     0.519   1.471   0.000   0.000   1.990     0.020       -0.000
                 22   dn:     0.519   1.471   0.000   0.000   1.990
  C              23   up:     0.513   1.488   0.000   0.000   2.001    -0.001        0.000
                 23   dn:     0.513   1.488   0.000   0.000   2.000
  C              24   up:     0.514   1.486   0.000   0.000   2.000     0.001        0.000
                 24   dn:     0.514   1.486   0.000   0.000   2.000
  C              25   up:     0.512   1.488   0.000   0.000   2.000    -0.001       -0.000
                 25   dn:     0.512   1.488   0.000   0.000   2.000
  C              26   up:     0.513   1.487   0.000   0.000   1.999     0.001       -0.000
                 26   dn:     0.513   1.487   0.000   0.000   2.000
  C              27   up:     0.513   1.487   0.000   0.000   2.000    -0.001       -0.000
                 27   dn:     0.513   1.487   0.000   0.000   2.001
  C              28   up:     0.514   1.486   0.000   0.000   1.999     0.001        0.000
                 28   dn:     0.514   1.486   0.000   0.000   1.999
  C              29   up:     0.514   1.487   0.000   0.000   2.001    -0.002       -0.000
                 29   dn:     0.514   1.487   0.000   0.000   2.001
  C              30   up:     0.516   1.489   0.000   0.000   2.005    -0.010       -0.000
                 30   dn:     0.516   1.489   0.000   0.000   2.005
  C              31   up:     0.513   1.488   0.000   0.000   2.001    -0.001        0.000
                 31   dn:     0.513   1.488   0.000   0.000   2.000
  C              32   up:     0.514   1.486   0.000   0.000   1.999     0.001        0.000
                 32   dn:     0.514   1.486   0.000   0.000   1.999
==============================================================================================
 
                 Bond                   Population        Spin       Length (A)
================================================================================
               H 1 -- C 11                   0.77        -0.00          1.12723
              C 1  -- C 12                   1.14         0.00          1.40858
              C 9  -- C 20                   1.14        -0.00          1.40882
              C 3  -- C 12                   1.14         0.00          1.40887
              C 21 -- C 22                   1.14        -0.00          1.40912
              C 13 -- C 22                   1.14        -0.00          1.40914
              C 19 -- C 20                   1.14         0.00          1.40919
              C 7  -- C 10                   1.11        -0.00          1.41536
              C 29 -- C 30                   1.11         0.00          1.41742
              C 5  -- C 14                   1.11        -0.00          1.41817
              C 8  -- C 31                   1.08         0.00          1.42108
              C 23 -- C 26                   1.07         0.00          1.42193
              C 6  -- C 27                   1.08        -0.00          1.42209
              C 2  -- C 25                   1.08        -0.00          1.42237
              C 4  -- C 25                   1.08        -0.00          1.42317
              C 15 -- C 16                   1.08        -0.00          1.42318
              C 15 -- C 18                   1.07        -0.00          1.42327
              C 2  -- C 31                   1.07         0.00          1.42348
              C 25 -- C 26                   1.07         0.00          1.42385
              C 23 -- C 32                   1.08         0.00          1.42386
              C 17 -- C 26                   1.07        -0.00          1.42392
              C 23 -- C 24                   1.08         0.00          1.42432
              C 17 -- C 28                   1.08         0.00          1.42447
              C 17 -- C 18                   1.08         0.00          1.42451
              C 4  -- C 27                   1.07         0.00          1.42467
              C 31 -- C 32                   1.07         0.00          1.42511
              C 27 -- C 28                   1.07         0.00          1.42552
              C 15 -- C 24                   1.07         0.00          1.42584
              C 1  -- C 2                    1.06        -0.00          1.42610
              C 3  -- C 4                    1.06         0.00          1.42651
              C 9  -- C 18                   1.06         0.00          1.42677
              C 21 -- C 32                   1.06         0.00          1.42703
              C 19 -- C 28                   1.06        -0.00          1.42719
              C 13 -- C 24                   1.06        -0.00          1.42744
              C 6  -- C 29                   1.05        -0.00          1.42994
              C 8  -- C 29                   1.05        -0.00          1.43039
              C 7  -- C 8                    1.05         0.00          1.43068
              C 7  -- C 16                   1.05        -0.00          1.43085
              C 5  -- C 6                    1.05         0.00          1.43092
              C 5  -- C 16                   1.05         0.00          1.43168
              C 1  -- C 10                   1.03         0.00          1.43698
              C 9  -- C 10                   1.03        -0.00          1.43739
              C 21 -- C 30                   1.03        -0.00          1.43767
              C 3  -- C 14                   1.03        -0.00          1.43794
              C 19 -- C 30                   1.03        -0.00          1.43796
              C 13 -- C 14                   1.03         0.00          1.43810
              C 11 -- C 12                   0.82         0.00          1.50309
              C 11 -- C 20                   0.82         0.00          1.50321
              C 11 -- C 22                   0.82         0.00          1.50339
               H 1 -- C 20                  -0.17         0.00          2.07840
               H 1 -- C 22                  -0.17        -0.00          2.08019
               H 1 -- C 12                  -0.17         0.00          2.08098
              C 2  -- C 12                  -0.18        -0.00          2.44872
              C 18 -- C 20                  -0.18        -0.00          2.44884
              C 4  -- C 12                  -0.18         0.00          2.44906
              C 20 -- C 28                  -0.18        -0.00          2.44992
              C 22 -- C 32                  -0.18         0.00          2.45009
              C 22 -- C 24                  -0.18        -0.00          2.45024
              C 1  -- C 3                   -0.17         0.00          2.45600
              C 13 -- C 21                  -0.17        -0.00          2.45669
              C 9  -- C 19                  -0.17         0.00          2.45714
              C 18 -- C 24                  -0.18         0.00          2.46135
              C 4  -- C 28                  -0.18         0.00          2.46180
              C 2  -- C 32                  -0.18         0.00          2.46189
              C 1  -- C 25                  -0.18        -0.00          2.46291
              C 26 -- C 32                  -0.18         0.00          2.46321
              C 17 -- C 23                  -0.18         0.00          2.46342
              C 3  -- C 25                  -0.18        -0.00          2.46367
              C 2  -- C 26                  -0.18        -0.00          2.46377
              C 4  -- C 26                  -0.18         0.00          2.46415
              C 24 -- C 26                  -0.18        -0.00          2.46483
              C 10 -- C 16                  -0.18        -0.00          2.46510
              C 23 -- C 25                  -0.18         0.00          2.46527
              C 6  -- C 30                  -0.18         0.00          2.46538
              C 21 -- C 23                  -0.18        -0.00          2.46542
              C 26 -- C 28                  -0.18         0.00          2.46594
              C 13 -- C 23                  -0.18         0.00          2.46601
              C 17 -- C 19                  -0.18        -0.00          2.46616
              C 17 -- C 25                  -0.18        -0.00          2.46627
              C 8  -- C 32                  -0.18        -0.00          2.46653
              C 2  -- C 8                   -0.18        -0.00          2.46654
              C 9  -- C 17                  -0.18        -0.00          2.46655
              C 2  -- C 4                   -0.18         0.00          2.46672
              C 8  -- C 30                  -0.18        -0.00          2.46675
              C 9  -- C 15                  -0.18         0.00          2.46682
              C 8  -- C 10                  -0.18        -0.00          2.46686
              C 18 -- C 26                  -0.18        -0.00          2.46701
              C 1  -- C 31                  -0.18        -0.00          2.46731
              C 3  -- C 27                  -0.18         0.00          2.46748
              C 6  -- C 28                  -0.18        -0.00          2.46756
              C 18 -- C 28                  -0.18        -0.00          2.46779
              C 7  -- C 31                  -0.18         0.00          2.46785
              C 24 -- C 32                  -0.18         0.00          2.46785
              C 16 -- C 18                  -0.18        -0.00          2.46786
              C 6  -- C 14                  -0.18        -0.00          2.46787
              C 25 -- C 31                  -0.18         0.00          2.46818
              C 5  -- C 27                  -0.18        -0.00          2.46892
              C 14 -- C 16                  -0.18         0.00          2.46931
              C 1  -- C 7                   -0.18         0.00          2.46956
              C 15 -- C 17                  -0.17        -0.00          2.46961
              C 19 -- C 27                  -0.18        -0.00          2.46971
              C 21 -- C 31                  -0.18         0.00          2.46974
              C 4  -- C 6                   -0.18         0.00          2.47012
              C 29 -- C 31                  -0.18        -0.00          2.47021
              C 23 -- C 31                  -0.17        -0.00          2.47029
              C 16 -- C 24                  -0.18         0.00          2.47031
              C 13 -- C 15                  -0.18        -0.00          2.47033
              C 5  -- C 15                  -0.18         0.00          2.47099
              C 7  -- C 9                   -0.18         0.00          2.47111
              C 7  -- C 15                  -0.18         0.00          2.47120
              C 25 -- C 27                  -0.17         0.00          2.47142
              C 27 -- C 29                  -0.17        -0.00          2.47147
              C 17 -- C 27                  -0.17         0.00          2.47167
              C 15 -- C 23                  -0.17        -0.00          2.47190
              C 21 -- C 29                  -0.18        -0.00          2.47226
              C 19 -- C 29                  -0.18         0.00          2.47338
              C 5  -- C 13                  -0.18         0.00          2.47364
              C 3  -- C 5                   -0.17         0.00          2.47403
              C 10 -- C 12                  -0.18         0.00          2.47414
              C 10 -- C 20                  -0.18        -0.00          2.47472
              C 22 -- C 30                  -0.18        -0.00          2.47512
              C 12 -- C 14                  -0.18        -0.00          2.47553
              C 14 -- C 22                  -0.18        -0.00          2.47570
              C 20 -- C 30                  -0.18         0.00          2.47572
              C 2  -- C 10                  -0.17         0.00          2.47580
              C 8  -- C 16                  -0.18        -0.00          2.47582
              C 4  -- C 14                  -0.17        -0.00          2.47698
              C 6  -- C 8                   -0.18        -0.00          2.47715
              C 30 -- C 32                  -0.17         0.00          2.47719
              C 6  -- C 16                  -0.18        -0.00          2.47729
              C 10 -- C 18                  -0.17        -0.00          2.47739
              C 28 -- C 30                  -0.17        -0.00          2.47767
              C 5  -- C 29                  -0.17         0.00          2.47788
              C 14 -- C 24                  -0.17        -0.00          2.47796
              C 7  -- C 29                  -0.17        -0.00          2.47885
              C 5  -- C 7                   -0.17        -0.00          2.48089
              C 1  -- C 9                   -0.17        -0.00          2.48865
              C 19 -- C 21                  -0.17        -0.00          2.48940
              C 3  -- C 13                  -0.17        -0.00          2.48942
              C 9  -- C 11                  -0.17        -0.00          2.51081
              C 1  -- C 11                  -0.17        -0.00          2.51092
              C 11 -- C 19                  -0.17        -0.00          2.51115
              C 3  -- C 11                  -0.17         0.00          2.51132
              C 11 -- C 13                  -0.17        -0.00          2.51168
              C 11 -- C 21                  -0.17         0.00          2.51168
              C 12 -- C 20                  -0.14        -0.00          2.53076
              C 12 -- C 22                  -0.14         0.00          2.53097
              C 20 -- C 22                  -0.14         0.00          2.53104
              C 12 -- C 25                  -0.11        -0.00          2.82423
              C 17 -- C 20                  -0.11        -0.00          2.82704
              C 22 -- C 23                  -0.11        -0.00          2.82706
              C 17 -- C 24                  -0.10        -0.00          2.84389
              C 1  -- C 4                   -0.11         0.00          2.84470
              C 2  -- C 3                   -0.11        -0.00          2.84480
              C 25 -- C 32                  -0.10         0.00          2.84481
              C 4  -- C 17                  -0.10        -0.00          2.84496
              C 2  -- C 23                  -0.10        -0.00          2.84534
              C 18 -- C 23                  -0.10        -0.00          2.84549
              C 18 -- C 19                  -0.11        -0.00          2.84552
              C 21 -- C 24                  -0.10        -0.00          2.84594
              C 13 -- C 32                  -0.10         0.00          2.84607
              C 9  -- C 28                  -0.10        -0.00          2.84657
              C 25 -- C 28                  -0.10        -0.00          2.84669
              C 14 -- C 27                  -0.10         0.00          2.84938
              C 10 -- C 31                  -0.10        -0.00          2.85005
              C 26 -- C 31                  -0.10        -0.00          2.85034
              C 10 -- C 15                  -0.10         0.00          2.85034
              C 2  -- C 7                   -0.10        -0.00          2.85039
              C 9  -- C 16                  -0.10        -0.00          2.85098
              C 6  -- C 19                  -0.10         0.00          2.85164
              C 8  -- C 21                  -0.10         0.00          2.85190
              C 1  -- C 8                   -0.10        -0.00          2.85194
              C 27 -- C 30                  -0.10         0.00          2.85216
              C 30 -- C 31                  -0.10        -0.00          2.85244
              C 14 -- C 15                  -0.10        -0.00          2.85282
              C 29 -- C 32                  -0.10         0.00          2.85310
              C 26 -- C 27                  -0.10         0.00          2.85382
              C 15 -- C 26                  -0.10        -0.00          2.85428
              C 7  -- C 18                  -0.10        -0.00          2.85430
              C 3  -- C 6                   -0.10         0.00          2.85463
              C 5  -- C 24                  -0.10        -0.00          2.85480
              C 4  -- C 5                   -0.10         0.00          2.85500
              C 28 -- C 29                  -0.10        -0.00          2.85511
              C 13 -- C 16                  -0.10         0.00          2.85553
              C 16 -- C 29                  -0.09        -0.00          2.85951
              C 5  -- C 8                   -0.09        -0.00          2.86155
              C 6  -- C 7                   -0.09        -0.00          2.86303
              C 9  -- C 12                  -0.08        -0.00          2.87779
              C 1  -- C 20                  -0.08        -0.00          2.87811
              C 19 -- C 22                  -0.08        -0.00          2.87830
              C 3  -- C 22                  -0.08        -0.00          2.87847
              C 12 -- C 13                  -0.08        -0.00          2.87860
              C 20 -- C 21                  -0.08        -0.00          2.87895
              C 10 -- C 11                  -0.08        -0.00          2.88750
              C 11 -- C 30                  -0.08        -0.00          2.88854
              C 11 -- C 14                  -0.08        -0.00          2.88906
               H 1 -- C 19                  -0.02         0.00          2.92379
               H 1 -- C 9                   -0.02         0.00          2.92438
               H 1 -- C 21                  -0.02         0.00          2.92569
               H 1 -- C 1                   -0.02        -0.00          2.92675
               H 1 -- C 13                  -0.02         0.00          2.92812
               H 1 -- C 3                   -0.02         0.00          2.92865
================================================================================
 

Writing analysis data to 4x4.castep_bin

Writing model to 4x4.check
 
 A BibTeX formatted list of references used in this run has been written to 
 4x4.bib
 
Initialisation time =      3.10 s
Calculation time    =   4375.74 s
Finalisation time   =      4.16 s
Total time          =   4383.00 s
Peak Memory Use     = 1067032 kB
  
Overall parallel efficiency rating: Mediocre (51%)                              
  
Data was distributed by:-
G-vector (16-way); efficiency rating: Mediocre (53%)                            
k-point (8-way); efficiency rating: Excellent (92%)                             
