 +-------------------------------------------------+
 |                                                 |
 |      CCC   AA    SSS  TTTTT  EEEEE  PPPP        |
 |     C     A  A  S       T    E      P   P       |
 |     C     AAAA   SS     T    EEE    PPPP        |
 |     C     A  A     S    T    E      P           |
 |      CCC  A  A  SSS     T    EEEEE  P           |
 |                                                 |
 +-------------------------------------------------+
 |                                                 |
 | Welcome to Academic Release CASTEP version 21.11|          
 | Ab Initio Total Energy Program                  |
 |                                                 |
 | Authors:                                        |
 | M. Segall, M. Probert, C. Pickard, P. Hasnip,   |
 | S. Clark, K. Refson, J. R. Yates, M. Payne      |
 |                                                 |
 | Contributors:                                   |
 | P. Lindan, P. Haynes, J. White, V. Milman,      |
 | N. Govind, M. Gibson, P. Tulip, V. Cocula,      |
 | B. Montanari, D. Quigley, M. Glover,            |
 | L. Bernasconi, A. Perlov, M. Plummer,           |
 | E. McNellis, J. Meyer, J. Gale, D. Jochym       |
 | J. Aarons, B. Walker, R. Gillen, D. Jones       |
 | T. Green, I. J. Bush, C. J. Armstrong,          |
 | E. J. Higgins, E. L. Brown, M. S. McFly,        |
 | J. Wilkins, B-C. Shih, P. J. P. Byrne,          |
 | R. J. Maurer, J. C. Womack, J. Dziedzic,        |
 | A. Bartok-Partay, L. LeBlanc                    |
 |                                                 |
 | Copyright (c) 2000 - 2021                       |
 |                                                 |
 |     Distributed under license from Cambridge    |
 |     Enterprise for academic use only.           |
 |                                                 |
 | Please cite                                     |
 |                                                 |
 |     "First principles methods using CASTEP"     |
 |                                                 |
 |         Zeitschrift fuer Kristallographie       |
 |           220(5-6) pp. 567-570 (2005)           |
 |                                                 |
 | S. J. Clark, M. D. Segall, C. J. Pickard,       |
 | P. J. Hasnip, M. J. Probert, K. Refson,         |
 | M. C. Payne                                     |
 |                                                 |
 |       in all publications arising from          |
 |              your use of CASTEP                 |
 |                                                 |
 +-------------------------------------------------+
 |                                                 |
 |              http://www.castep.org              |
 |                                                 |
 +-------------------------------------------------+
 
 
 
 Compiled for linux_x86_64_cray-XT on Tue, 01 Mar 2022 09:19:15 +0000
 from code version 7d4405a8a+  HEAD  Sat Nov 27 13:38:33 2021 +0000
 Compiler: Cray Fortran 12.0.3; Optimisation: fast
 MATHLIBS: LibSci (LAPACK version 3.6.1)
 FFT Lib : fftw3 version commercial-fftw-3.3.8-sse2-avx-avx2-avx2_128
 Fundamental constants values: CODATA 2014
 
 Run started: Sat, 29 Oct 2022 16:26:48 -0100
 
 Atomic calculation performed for H: 1s1
 
 Converged in 41 iterations to an ae energy of -12.488 eV
 
   ============================================================                
   | Pseudopotential Report - Date of generation 29-10-2022   |                
   ------------------------------------------------------------                
   | Element: H Ionic charge:  1.00 Level of theory: PBE      |                
   | Atomic Solver: Koelling-Harmon                           |                
   |                                                          |                
   |               Reference Electronic Structure             |                
   |         Orbital         Occupation         Energy        |                
   |            1s              1.000           -0.239        |                
   |                                                          |                
   |                 Pseudopotential Definition               |                
   |        Beta     l      e      Rc     scheme   norm       |                
   |          1      0   -0.239   0.803     qc      1         |                
   |         loc     1    0.000   0.803     pn      0         |                
   |                                                          |                
   | No charge augmentation                                   |                
   | No partial core correction                               |                
   ------------------------------------------------------------                
   | "1|0.8|14|16|19|10N(qc=8)"                               |                
   ------------------------------------------------------------                
   |      Author: Chris J. Pickard, Cambridge University      |                
   ============================================================                
 
 Atomic calculation performed for C: 1s2 2s2 2p2
 
 Converged in 54 iterations to an ae energy of -1027.632 eV
 
   ============================================================                
   | Pseudopotential Report - Date of generation 29-10-2022   |                
   ------------------------------------------------------------                
   | Element: C Ionic charge:  4.00 Level of theory: PBE      |                
   | Atomic Solver: Koelling-Harmon                           |                
   |                                                          |                
   |               Reference Electronic Structure             |                
   |         Orbital         Occupation         Energy        |                
   |            2s              2.000           -0.505        |                
   |            2p              2.000           -0.194        |                
   |                                                          |                
   |                 Pseudopotential Definition               |                
   |        Beta     l      e      Rc     scheme   norm       |                
   |          1      0   -0.505   1.201     qc      1         |                
   |         loc     1   -0.194   1.201     qc      1         |                
   |                                                          |                
   | No charge augmentation                                   |                
   | Partial core correction Rc = 0.839                       |                
   ------------------------------------------------------------                
   | "1|1.2|17|20|23|20N:21L(qc=8)"                           |                
   ------------------------------------------------------------                
   |      Author: Chris J. Pickard, Cambridge University      |                
   ============================================================                
 
 Pseudo atomic calculation performed for H 1s1
 
 Converged in 13 iterations to a total energy of -12.4790 eV
 
 Pseudo atomic calculation performed for C 2s2 2p2
 
 Converged in 18 iterations to a total energy of -152.4291 eV
 Calculation parallelised over 128 processes.
 Data is distributed by G-vector(128-way)

 ************************************ Title ************************************
 

 ***************************** General Parameters ******************************
  
 output verbosity                               : normal  (1)
 write checkpoint data to                       : 9x9.check
 type of calculation                            : transition state search
 stress calculation                             : off
 density difference calculation                 : off
 electron localisation func (ELF) calculation   : off
 Hirshfeld analysis                             : off
 polarisation (Berry phase) analysis            : off
 molecular orbital projected DOS                : off
 deltaSCF calculation                           : off
 unlimited duration calculation
 timing information                             : on
 memory usage estimate                          : on
 write extra output files                       : on
 write final potential to formatted file        : off
 write final density to formatted file          : off
 write structure in CELL formatted file         : on
 write BibTeX reference list                    : on
 write OTFG pseudopotential files               : on
 write electrostatic potential file             : on
 write bands file                               : on
 checkpoint writing                             : both castep_bin and check files
  
 output         length unit                     : A
 output           mass unit                     : amu
 output           time unit                     : ps
 output         charge unit                     : e
 output           spin unit                     : hbar/2
 output         energy unit                     : eV
 output          force unit                     : eV/A
 output       velocity unit                     : A/ps
 output       pressure unit                     : GPa
 output     inv_length unit                     : 1/A
 output      frequency unit                     : cm-1
 output force constant unit                     : eV/A**2
 output         volume unit                     : A**3
 output   IR intensity unit                     : (D/A)**2/amu
 output         dipole unit                     : D
 output         efield unit                     : eV/A/e
 output        entropy unit                     : J/mol/K
 output    efield chi2 unit                     : pm/V
  
 wavefunctions paging                           : none
 random number generator seed                   : randomised (162649035)
 data distribution                              : optimal for this architecture
 optimization strategy                          : maximize speed(+++)

 *********************** Exchange-Correlation Parameters ***********************
  
 using functional                               : Perdew Burke Ernzerhof
 relativistic treatment                         : Koelling-Harmon
 DFT+D: Semi-empirical dispersion correction    : on
 SEDC with                                      : MBD@rsSCS method

 ************************* Pseudopotential Parameters **************************
  
 pseudopotential representation                 : reciprocal space
 <beta|phi> representation                      : reciprocal space
 spin-orbit coupling                            : off

 **************************** Basis Set Parameters *****************************
  
 plane wave basis set cut-off                   :   800.0000   eV
 size of standard grid                          :     1.7500
 size of   fine   gmax                          :    25.3584   1/A
 finite basis set correction                    : none

 **************************** Electronic Parameters ****************************
  
 number of  electrons                           :  650.0    
 net charge of system                           :  0.000    
 treating system as non-spin-polarized
 number of bands                                :        488

 ********************* Electronic Minimization Parameters **********************
  
 Method: Treating system as metallic with density mixing treatment of electrons,
         and number of  SD  steps               :          1
         and number of  CG  steps               :          4
  
 total energy / atom convergence tol.           : 0.1000E-05   eV
 eigen-energy convergence tolerance             : 0.3361E-06   eV
 max force / atom convergence tol.              : ignored
 convergence tolerance window                   :          3   cycles
 max. number of SCF cycles                      :        100
 number of fixed-spin iterations                :         10
 smearing scheme                                : Gaussian
 smearing width                                 : 0.2000       eV
 Fermi energy convergence tolerance             : 0.2721E-13   eV
 periodic dipole correction                     : NONE

 ************************** Density Mixing Parameters **************************
  
 density-mixing scheme                          : Pulay
 max. length of mixing history                  :         20
 charge density mixing amplitude                : 0.8000    
 cut-off energy for mixing                      :  800.0       eV

 *********************** Population Analysis Parameters ************************
  
 Population analysis with cutoff                :  3.000       A
 Population analysis output                     : summary and pdos components

 ********************* Transition State Search Parameters **********************
  
 search method                                  : LSTQST
 LSTQST protocol                                : COMPLETELSTQST   
 max. number of QST iterations                  :         60
 max. number of CG  iterations                  :         60
 max. ionic |force| tolerance                   : 0.2571       eV/A
 max. ionic |displacement| tolerance            : 0.1000E-02   A

 *******************************************************************************
  
 
                           -------------------------------
                                      Unit Cell
                           -------------------------------
        Real Lattice(A)                      Reciprocal Lattice(1/A)
    22.2300000     0.0000000     0.0000000        0.282644413   0.163184826   0.000000000
   -11.1150000    19.2517450     0.0000000        0.000000000   0.326369652   0.000000000
     0.0000000     0.0000000    20.0340000        0.000000000   0.000000000   0.313626101
 
                       Lattice parameters(A)       Cell Angles
                    a =     22.230000          alpha =   90.000000
                    b =     22.230000          beta  =   90.000000
                    c =     20.034000          gamma =  120.000000
 
                       Current cell volume =          8573.876681       A**3
                                   density =             0.227173   AMU/A**3
                                           =             0.377229     g/cm^3
 
                           -------------------------------
                                     Cell Contents
                           -------------------------------
                         Total number of ions in cell =  164
                      Total number of species in cell =    2
                        Max number of any one species =  162
 
            xxxxxxxxxxxxxxxxxxxxxxxxxxxxxxxxxxxxxxxxxxxxxxxxxxxxxxxxxxxx
            x                          Reactant                        x
            xxxxxxxxxxxxxxxxxxxxxxxxxxxxxxxxxxxxxxxxxxxxxxxxxxxxxxxxxxxx
            x  Element    Atom        Fractional coordinates of atoms  x
            x            Number           u          v          w      x
            x----------------------------------------------------------x
            x  H            1         0.446946   0.445729   0.588279   x 
            x  H            2         0.293393   0.368946   0.588227   x 
            x  C            1         0.073980   0.037121   0.498120   x 
            x  C            2        -0.000029   0.000086   0.497580   x 
            x  C            3         0.073665   0.147842   0.498731   x 
            x  C            4        -0.000343   0.110787   0.497574   x 
            x  C            5         0.073572   0.258956   0.499297   x 
            x  C            6        -0.000645   0.221784   0.497683   x 
            x  C            7         0.073613   0.370160   0.498689   x 
            x  C            8        -0.000383   0.333120   0.497536   x 
            x  C            9         0.073822   0.481204   0.498063   x 
            x  C           10        -0.000189   0.444221   0.497549   x 
            x  C           11         0.074027   0.592592   0.497612   x 
            x  C           12        -0.000208   0.555466   0.497600   x 
            x  C           13         0.073948   0.703883   0.497682   x 
            x  C           14        -0.000016   0.666826   0.497760   x 
            x  C           15         0.073978   0.815033   0.497712   x 
            x  C           16        -0.000001   0.777921   0.497780   x 
            x  C           17         0.074090   0.926257   0.497680   x 
            x  C           18        -0.000181   0.889023   0.497637   x 
            x  C           19         0.185040   0.036816   0.497892   x 
            x  C           20         0.110951  -0.000151   0.497958   x 
            x  C           21         0.185256   0.148415   0.501094   x 
            x  C           22         0.110683   0.110962   0.499257   x 
            x  C           23         0.184540   0.259335   0.505769   x 
            x  C           24         0.110495   0.222024   0.500402   x 
            x  C           25         0.184519   0.369602   0.505734   x 
            x  C           26         0.110466   0.332828   0.500378   x 
            x  C           27         0.185200   0.481225   0.500996   x 
            x  C           28         0.110586   0.444079   0.499192   x 
            x  C           29         0.185022   0.592643   0.497778   x 
            x  C           30         0.110825   0.555534   0.497874   x 
            x  C           31         0.184992   0.703799   0.497151   x 
            x  C           32         0.110920   0.666695   0.497497   x 
            x  C           33         0.185134   0.815092   0.497279   x 
            x  C           34         0.110867   0.777928   0.497625   x 
            x  C           35         0.185013   0.926081   0.497226   x 
            x  C           36         0.110995   0.889182   0.497560   x 
            x  C           37         0.296114   0.036719   0.496790   x 
            x  C           38         0.221938  -0.000207   0.497170   x 
            x  C           39         0.295993   0.147725   0.498750   x 
            x  C           40         0.222122   0.110945   0.499103   x 
            x  C           41         0.296384   0.258867   0.506459   x 
            x  C           42         0.221919   0.221773   0.505380   x 
            x  C           43         0.295462   0.369958   0.532278   x 
            x  C           44         0.220082   0.332250   0.511553   x 
            x  C           45         0.296387   0.481961   0.506357   x 
            x  C           46         0.221896   0.444553   0.505294   x 
            x  C           47         0.296051   0.592724   0.498622   x 
            x  C           48         0.222138   0.555585   0.498976   x 
            x  C           49         0.296256   0.703933   0.496689   x 
            x  C           50         0.221975   0.666695   0.497068   x 
            x  C           51         0.296234   0.815131   0.496646   x 
            x  C           52         0.222089   0.778031   0.497011   x 
            x  C           53         0.296193   0.926001   0.496690   x 
            x  C           54         0.222119   0.889075   0.497056   x 
            x  C           55         0.407162   0.036678   0.496583   x 
            x  C           56         0.333152  -0.000233   0.496550   x 
            x  C           57         0.407259   0.147735   0.497267   x 
            x  C           58         0.333051   0.110628   0.497242   x 
            x  C           59         0.407291   0.258982   0.501399   x 
            x  C           60         0.333117   0.221885   0.501394   x 
            x  C           61         0.406177   0.368309   0.514682   x 
            x  C           62         0.334275   0.332341   0.514674   x 
            x  C           63         0.406194   0.482340   0.514630   x 
            x  C           64         0.334283   0.446385   0.514608   x 
            x  C           65         0.407357   0.592804   0.501344   x 
            x  C           66         0.333167   0.555690   0.501289   x 
            x  C           67         0.407420   0.704057   0.497188   x 
            x  C           68         0.333189   0.666911   0.497126   x 
            x  C           69         0.407398   0.815105   0.496515   x 
            x  C           70         0.333304   0.778047   0.496479   x 
            x  C           71         0.407447   0.926111   0.496646   x 
            x  C           72         0.333237   0.889108   0.496599   x 
            x  C           73         0.518364   0.036690   0.497166   x 
            x  C           74         0.444294  -0.000253   0.496771   x 
            x  C           75         0.518460   0.147933   0.497269   x 
            x  C           76         0.444186   0.110718   0.496845   x 
            x  C           77         0.518311   0.259055   0.499176   x 
            x  C           78         0.444393   0.221922   0.498782   x 
            x  C           79         0.518548   0.370108   0.505485   x 
            x  C           80         0.444060   0.332715   0.506468   x 
            x  C           81         0.520366   0.482426   0.511695   x 
            x  C           82         0.444968   0.444721   0.532326   x 
            x  C           83         0.518587   0.592948   0.505494   x 
            x  C           84         0.444102   0.555831   0.506430   x 
            x  C           85         0.518425   0.703804   0.499185   x 
            x  C           86         0.444510   0.666983   0.498745   x 
            x  C           87         0.518676   0.815112   0.497228   x 
            x  C           88         0.444403   0.778029   0.496776   x 
            x  C           89         0.518563   0.926138   0.497122   x 
            x  C           90         0.444493   0.889214   0.496724   x 
            x  C           91         0.629604   0.036778   0.497740   x 
            x  C           92         0.555390  -0.000226   0.497394   x 
            x  C           93         0.629530   0.147928   0.497695   x 
            x  C           94         0.555439   0.110838   0.497355   x 
            x  C           95         0.629644   0.259090   0.498099   x 
            x  C           96         0.555416   0.221980   0.497989   x 
            x  C           97         0.629892   0.370559   0.499423   x 
            x  C           98         0.555248   0.333426   0.501210   x 
            x  C           99         0.630000   0.481829   0.500612   x 
            x  C          100         0.555920   0.445063   0.505923   x 
            x  C          101         0.630004   0.592677   0.500613   x 
            x  C          102         0.555932   0.555352   0.505931   x 
            x  C          103         0.629934   0.703869   0.499450   x 
            x  C          104         0.555308   0.666341   0.501239   x 
            x  C          105         0.629778   0.815138   0.498110   x 
            x  C          106         0.555577   0.778000   0.497988   x 
            x  C          107         0.629683   0.926021   0.497665   x 
            x  C          108         0.555678   0.889146   0.497307   x 
            x  C          109         0.740699   0.036790   0.497784   x 
            x  C          110         0.666616  -0.000172   0.497790   x 
            x  C          111         0.740732   0.147852   0.497785   x 
            x  C          112         0.666576   0.110776   0.497807   x 
            x  C          113         0.740947   0.259250   0.497728   x 
            x  C          114         0.666508   0.222059   0.497818   x 
            x  C          115         0.740921   0.370511   0.497756   x 
            x  C          116         0.666720   0.333454   0.498288   x 
            x  C          117         0.741108   0.481607   0.497791   x 
            x  C          118         0.666925   0.444511   0.498937   x 
            x  C          119         0.741362   0.592946   0.497926   x 
            x  C          120         0.666966   0.555738   0.499525   x 
            x  C          121         0.741085   0.704015   0.497784   x 
            x  C          122         0.666925   0.666922   0.498936   x 
            x  C          123         0.740936   0.814954   0.497757   x 
            x  C          124         0.666775   0.777808   0.498310   x 
            x  C          125         0.740980   0.926114   0.497721   x 
            x  C          126         0.666648   0.888982   0.497806   x 
            x  C          127         0.851890   0.036700   0.497455   x 
            x  C          128         0.777797  -0.000260   0.497660   x 
            x  C          129         0.851998   0.147972   0.497433   x 
            x  C          130         0.777637   0.110759   0.497700   x 
            x  C          131         0.851964   0.259241   0.497432   x 
            x  C          132         0.777821   0.222125   0.497655   x 
            x  C          133         0.852102   0.370375   0.497493   x 
            x  C          134         0.777947   0.333276   0.497629   x 
            x  C          135         0.852383   0.481746   0.497508   x 
            x  C          136         0.777993   0.444532   0.497604   x 
            x  C          137         0.852366   0.592958   0.497473   x 
            x  C          138         0.778246   0.555869   0.497592   x 
            x  C          139         0.852340   0.703965   0.497477   x 
            x  C          140         0.778223   0.666903   0.497591   x 
            x  C          141         0.852287   0.815119   0.497498   x 
            x  C          142         0.777940   0.777965   0.497596   x 
            x  C          143         0.851971   0.926100   0.497488   x 
            x  C          144         0.777926   0.889166   0.497620   x 
            x  C          145         0.963097   0.036981   0.497420   x 
            x  C          146         0.888844  -0.000210   0.497400   x 
            x  C          147         0.962841   0.147990   0.497380   x 
            x  C          148         0.888864   0.110892   0.497325   x 
            x  C          149         0.962857   0.259038   0.497357   x 
            x  C          150         0.888896   0.221971   0.497305   x 
            x  C          151         0.963130   0.370388   0.497387   x 
            x  C          152         0.888912   0.333229   0.497380   x 
            x  C          153         0.963182   0.481643   0.497505   x 
            x  C          154         0.889194   0.444609   0.497496   x 
            x  C          155         0.963298   0.592756   0.497642   x 
            x  C          156         0.889319   0.555711   0.497539   x 
            x  C          157         0.963446   0.704082   0.497748   x 
            x  C          158         0.889256   0.666928   0.497559   x 
            x  C          159         0.963257   0.815186   0.497663   x 
            x  C          160         0.889266   0.778157   0.497541   x 
            x  C          161         0.963013   0.925974   0.497523   x 
            x  C          162         0.889029   0.889013   0.497490   x 
            xxxxxxxxxxxxxxxxxxxxxxxxxxxxxxxxxxxxxxxxxxxxxxxxxxxxxxxxxxxx
 
            xxxxxxxxxxxxxxxxxxxxxxxxxxxxxxxxxxxxxxxxxxxxxxxxxxxxxxxxxxxx
            x                          Product                         x
            xxxxxxxxxxxxxxxxxxxxxxxxxxxxxxxxxxxxxxxxxxxxxxxxxxxxxxxxxxxx
            x  Element    Atom        Fractional coordinates of atoms  x
            x            Number           u          v          w      x
            x----------------------------------------------------------x
            x  H            1         0.392912   0.422115   0.686749   x 
            x  H            2         0.353857   0.402016   0.687728   x 
            x  C            1         0.073931   0.036869   0.499431   x 
            x  C            2        -0.000011  -0.000038   0.498927   x 
            x  C            3         0.073771   0.147894   0.500459   x 
            x  C            4        -0.000210   0.110854   0.499642   x 
            x  C            5         0.073712   0.259037   0.500796   x 
            x  C            6        -0.000291   0.221966   0.499807   x 
            x  C            7         0.073693   0.370222   0.500387   x 
            x  C            8        -0.000241   0.333215   0.499567   x 
            x  C            9         0.073726   0.481397   0.499330   x 
            x  C           10        -0.000200   0.444357   0.498826   x 
            x  C           11         0.073797   0.592629   0.498045   x 
            x  C           12        -0.000150   0.555577   0.498039   x 
            x  C           13         0.073848   0.703839   0.497217   x 
            x  C           14        -0.000095   0.666763   0.497445   x 
            x  C           15         0.073882   0.814963   0.497267   x 
            x  C           16        -0.000073   0.777904   0.497485   x 
            x  C           17         0.073877   0.926016   0.498151   x 
            x  C           18        -0.000104   0.888954   0.498130   x 
            x  C           19         0.184938   0.036717   0.499312   x 
            x  C           20         0.110913  -0.000199   0.498936   x 
            x  C           21         0.184889   0.147851   0.501097   x 
            x  C           22         0.110796   0.110847   0.500366   x 
            x  C           23         0.184856   0.259052   0.502209   x 
            x  C           24         0.110747   0.221990   0.501226   x 
            x  C           25         0.184839   0.370234   0.502168   x 
            x  C           26         0.110718   0.333149   0.501187   x 
            x  C           27         0.184817   0.481431   0.501010   x 
            x  C           28         0.110695   0.444322   0.500277   x 
            x  C           29         0.184887   0.592643   0.499228   x 
            x  C           30         0.110783   0.555534   0.498835   x 
            x  C           31         0.184939   0.703842   0.497594   x 
            x  C           32         0.110827   0.666738   0.497524   x 
            x  C           33         0.184993   0.815016   0.497065   x 
            x  C           34         0.110879   0.777921   0.497042   x 
            x  C           35         0.184986   0.926000   0.497652   x 
            x  C           36         0.110919   0.889056   0.497604   x 
            x  C           37         0.296017   0.036662   0.498707   x 
            x  C           38         0.221959  -0.000293   0.498522   x 
            x  C           39         0.296052   0.147792   0.500856   x 
            x  C           40         0.221972   0.110804   0.500502   x 
            x  C           41         0.296071   0.259075   0.502706   x 
            x  C           42         0.221984   0.221996   0.502126   x 
            x  C           43         0.296079   0.370276   0.503516   x 
            x  C           44         0.221920   0.333186   0.502825   x 
            x  C           45         0.296055   0.481473   0.502637   x 
            x  C           46         0.221947   0.444421   0.502051   x 
            x  C           47         0.296090   0.592703   0.500781   x 
            x  C           48         0.221947   0.555574   0.500418   x 
            x  C           49         0.296139   0.703913   0.498639   x 
            x  C           50         0.221984   0.666782   0.498447   x 
            x  C           51         0.296193   0.815069   0.497269   x 
            x  C           52         0.222041   0.777981   0.497198   x 
            x  C           53         0.296159   0.926024   0.497288   x 
            x  C           54         0.222075   0.889077   0.497223   x 
            x  C           55         0.407136   0.036682   0.497946   x 
            x  C           56         0.333097  -0.000247   0.497917   x 
            x  C           57         0.407192   0.147764   0.499899   x 
            x  C           58         0.333088   0.110708   0.499879   x 
            x  C           59         0.407297   0.259070   0.502024   x 
            x  C           60         0.333093   0.221960   0.502002   x 
            x  C           61         0.407287   0.370302   0.503521   x 
            x  C           62         0.333168   0.333218   0.503490   x 
            x  C           63         0.407281   0.481474   0.503477   x 
            x  C           64         0.333151   0.444410   0.503441   x 
            x  C           65         0.407325   0.592727   0.501958   x 
            x  C           66         0.333121   0.555593   0.501928   x 
            x  C           67         0.407332   0.703945   0.499842   x 
            x  C           68         0.333199   0.666874   0.499809   x 
            x  C           69         0.407345   0.815063   0.497912   x 
            x  C           70         0.333236   0.778010   0.497871   x 
            x  C           71         0.407336   0.926047   0.497181   x 
            x  C           72         0.333278   0.889132   0.497149   x 
            x  C           73         0.518361   0.036719   0.497315   x 
            x  C           74         0.444257  -0.000234   0.497354   x 
            x  C           75         0.518397   0.147827   0.498608   x 
            x  C           76         0.444219   0.110720   0.498750   x 
            x  C           77         0.518463   0.259065   0.500565   x 
            x  C           78         0.444305   0.221945   0.500890   x 
            x  C           79         0.518496   0.370257   0.502228   x 
            x  C           80         0.444360   0.333213   0.502765   x 
            x  C           81         0.518539   0.481518   0.502967   x 
            x  C           82         0.444378   0.444428   0.503590   x 
            x  C           83         0.518502   0.592728   0.502201   x 
            x  C           84         0.444383   0.555631   0.502711   x 
            x  C           85         0.518548   0.703927   0.500556   x 
            x  C           86         0.444410   0.666886   0.500848   x 
            x  C           87         0.518584   0.815140   0.498612   x 
            x  C           88         0.444425   0.778058   0.498719   x 
            x  C           89         0.518553   0.926107   0.497314   x 
            x  C           90         0.444456   0.889162   0.497341   x 
            x  C           91         0.629564   0.036764   0.497135   x 
            x  C           92         0.555460  -0.000196   0.497167   x 
            x  C           93         0.629587   0.147865   0.497675   x 
            x  C           94         0.555436   0.110789   0.497742   x 
            x  C           95         0.629685   0.259102   0.499021   x 
            x  C           96         0.555509   0.221981   0.499389   x 
            x  C           97         0.629758   0.370335   0.500459   x 
            x  C           98         0.555588   0.333218   0.501182   x 
            x  C           99         0.629778   0.481532   0.501386   x 
            x  C          100         0.555637   0.444469   0.502347   x 
            x  C          101         0.629773   0.592743   0.501379   x 
            x  C          102         0.555631   0.555656   0.502336   x 
            x  C          103         0.629794   0.703960   0.500477   x 
            x  C          104         0.555644   0.666878   0.501178   x 
            x  C          105         0.629799   0.815155   0.499060   x 
            x  C          106         0.555647   0.778096   0.499403   x 
            x  C          107         0.629750   0.926144   0.497704   x 
            x  C          108         0.555658   0.889188   0.497759   x 
            x  C          109         0.740790   0.036816   0.497548   x 
            x  C          110         0.666706  -0.000126   0.497337   x 
            x  C          111         0.740823   0.147928   0.497533   x 
            x  C          112         0.666657   0.110828   0.497332   x 
            x  C          113         0.740898   0.259161   0.498173   x 
            x  C          114         0.666710   0.222013   0.498231   x 
            x  C          115         0.740963   0.370400   0.498980   x 
            x  C          116         0.666803   0.333287   0.499511   x 
            x  C          117         0.741016   0.481575   0.499732   x 
            x  C          118         0.666852   0.444480   0.500592   x 
            x  C          119         0.741049   0.592778   0.499956   x 
            x  C          120         0.666814   0.555652   0.500971   x 
            x  C          121         0.740979   0.703933   0.499761   x 
            x  C          122         0.666850   0.666886   0.500595   x 
            x  C          123         0.740956   0.815090   0.499037   x 
            x  C          124         0.666854   0.778065   0.499552   x 
            x  C          125         0.740914   0.926149   0.498232   x 
            x  C          126         0.666847   0.889215   0.498271   x 
            x  C          127         0.852019   0.036846   0.498340   x 
            x  C          128         0.777924  -0.000112   0.497937   x 
            x  C          129         0.852033   0.148004   0.498211   x 
            x  C          130         0.777868   0.110869   0.497604   x 
            x  C          131         0.852107   0.259218   0.498276   x 
            x  C          132         0.777949   0.222110   0.497892   x 
            x  C          133         0.852150   0.370460   0.498388   x 
            x  C          134         0.778005   0.333323   0.498472   x 
            x  C          135         0.852212   0.481665   0.498549   x 
            x  C          136         0.778047   0.444521   0.499052   x 
            x  C          137         0.852239   0.592835   0.498578   x 
            x  C          138         0.778113   0.555702   0.499433   x 
            x  C          139         0.852206   0.703941   0.498598   x 
            x  C          140         0.778085   0.666914   0.499453   x 
            x  C          141         0.852129   0.815032   0.498617   x 
            x  C          142         0.777997   0.778018   0.499099   x 
            x  C          143         0.852040   0.926067   0.498475   x 
            x  C          144         0.777987   0.889181   0.498547   x 
            x  C          145         0.963079   0.036924   0.499029   x 
            x  C          146         0.889064  -0.000117   0.498608   x 
            x  C          147         0.963033   0.148012   0.499356   x 
            x  C          148         0.889032   0.110918   0.498576   x 
            x  C          149         0.963044   0.259227   0.499319   x 
            x  C          150         0.889062   0.222110   0.498532   x 
            x  C          151         0.963111   0.370441   0.498924   x 
            x  C          152         0.889124   0.333365   0.498510   x 
            x  C          153         0.963158   0.481636   0.498356   x 
            x  C          154         0.889177   0.444562   0.498363   x 
            x  C          155         0.963201   0.592801   0.497811   x 
            x  C          156         0.889252   0.555771   0.498265   x 
            x  C          157         0.963231   0.703974   0.497546   x 
            x  C          158         0.889274   0.666930   0.498217   x 
            x  C          159         0.963158   0.815029   0.497875   x 
            x  C          160         0.889206   0.778011   0.498324   x 
            x  C          161         0.962988   0.925962   0.498459   x 
            x  C          162         0.889019   0.889040   0.498453   x 
            xxxxxxxxxxxxxxxxxxxxxxxxxxxxxxxxxxxxxxxxxxxxxxxxxxxxxxxxxxxx
 
 
                         No user defined ionic velocities
 
                           -------------------------------
                                   Details of Species
                           -------------------------------
 
                               Mass of species in AMU
                                    H    1.0079400
                                    C   12.0107000
 
                          Electric Quadrupole Moment (Barn)
                                    H    0.0028600 Isotope  2
                                    C    0.0332700 Isotope 11
 
                          Files used for pseudopotentials:
                                    H 1|0.8|14|16|19|10N(qc=8)
                                    C 1|1.2|17|20|23|20N:21L(qc=8)
 
                           -------------------------------
                              k-Points For BZ Sampling
                           -------------------------------
                       MP grid size for SCF calculation is  1  1  1
                            with an offset of   0.000  0.000  0.000
                       Number of kpoints used =   1
 
                           -------------------------------
                               Symmetry and Constraints
                           -------------------------------
 
                      Maximum deviation from symmetry =  0.00000         ANG
 
                      Number of symmetry operations   = 1
         There are no ionic constraints specified or generated for this cell
                      Point group of crystal =     1: C1, 1, 1
                      Space group of crystal =     1: P1, P 1
 
             Set iprint > 1 for details on symmetry rotations/translations
 
                         Centre of mass is NOT constrained
 
                         Number of cell constraints= 6
                         Cell constraints are:  0 0 0 0 0 0
 
                         External pressure/stress (GPa)
                          0.00000   0.00000   0.00000
                                    0.00000   0.00000
                                              0.00000
 
                                --------------------
                                  DFT-D parameters
                                --------------------
 
                          Dispersion-correction scheme : MBD*      
                        Parameter sR :   0.830000 (default)
 
        xxxxxxxxxxxxxxxxxxxxxxxxxxxxxxxxxxxxxxxxxxxxxxxxxxxxxxxxxxxxxxxxxxxx
        x              Atomic DFT-D parameters                             x
        x  Species      C6            alpha        R0                      x
        x               eV A^6        A^3          A                       x
        x------------------------------------------------------------------x
        x  H             3.8839       0.6668       1.6404   (default)      x
        x  C            27.8448       1.7782       1.8997   (default)      x
        xxxxxxxxxxxxxxxxxxxxxxxxxxxxxxxxxxxxxxxxxxxxxxxxxxxxxxxxxxxxxxxxxxxx
 
  
+---------------- MEMORY AND SCRATCH DISK ESTIMATES PER PROCESS --------------+
|                                                     Memory          Disk    |
| Baseline code, static data and system overhead      788.0 MB         0.0 MB |
| BLAS internal memory storage                          0.0 MB         0.0 MB |
| Model and support data                               35.2 MB         0.0 MB |
| Electronic energy minimisation requirements          68.9 MB         0.0 MB |
| Force calculation requirements                        5.4 MB         0.0 MB |
|                                               ----------------------------- |
| Approx. total storage required per process          892.1 MB         0.0 MB |
|                                                                             |
| Requirements will fluctuate during execution and may exceed these estimates |
+-----------------------------------------------------------------------------+
Calculating approximate eigenstates for fixed initial Hamiltonian
Cut-off for approx. calculation is  282.421 eV
Improving approx. states at cut-off of  462.594 eV
Resetting cut-off to  800.000 eV
Calculating total energy with cut-off of  800.000 eV.
------------------------------------------------------------------------ <-- SCF
SCF loop      Energy           Fermi           Energy gain       Timer   <-- SCF
                               energy          per atom          (sec)   <-- SCF
------------------------------------------------------------------------ <-- SCF
Initial  -2.39263126E+004  0.00000000E+000                        28.05  <-- SCF
      1  -2.62823119E+004 -5.68577734E+000   1.43658492E+001      43.17  <-- SCF
      2  -2.62828493E+004 -5.68690606E+000   3.27705813E-003      58.92  <-- SCF
      3  -2.62179171E+004 -4.38129803E+000  -3.95928122E-001      76.49  <-- SCF
      4  -2.62139629E+004 -3.88081521E+000  -2.41109596E-002      94.32  <-- SCF
      5  -2.62127097E+004 -3.56036671E+000  -7.64143450E-003     112.63  <-- SCF
      6  -2.62123505E+004 -3.36418307E+000  -2.19029923E-003     130.40  <-- SCF
      7  -2.62120262E+004 -3.12816925E+000  -1.97770503E-003     147.89  <-- SCF
      8  -2.62118215E+004 -2.99429052E+000  -1.24825536E-003     165.17  <-- SCF
      9  -2.62118365E+004 -2.85066112E+000   9.15681440E-005     182.10  <-- SCF
     10  -2.62119131E+004 -2.75537265E+000   4.67410566E-004     198.16  <-- SCF
     11  -2.62119509E+004 -2.67787793E+000   2.30276206E-004     213.29  <-- SCF
     12  -2.62119469E+004 -2.60393458E+000  -2.42015094E-005     228.52  <-- SCF
     13  -2.62119365E+004 -2.53623259E+000  -6.32579223E-005     243.23  <-- SCF
     14  -2.62119292E+004 -2.47277422E+000  -4.47030943E-005     257.73  <-- SCF
     15  -2.62119479E+004 -2.41657890E+000   1.13704814E-004     271.83  <-- SCF
     16  -2.62119838E+004 -2.38987086E+000   2.18908711E-004     285.79  <-- SCF
     17  -2.62120018E+004 -2.38578762E+000   1.10050958E-004     299.60  <-- SCF
     18  -2.62120063E+004 -2.38562716E+000   2.71104219E-005     312.62  <-- SCF
     19  -2.62120072E+004 -2.38556998E+000   5.47189799E-006     325.40  <-- SCF
     20  -2.62120073E+004 -2.38558638E+000   7.81858905E-007     338.63  <-- SCF
     21  -2.62120074E+004 -2.38555279E+000   4.26467864E-007     351.51  <-- SCF
     22  -2.62120074E+004 -2.38547052E+000   3.55450668E-007     364.83  <-- SCF
------------------------------------------------------------------------ <-- SCF
 
Final energy, E             =  -26211.71427256     eV
Final free energy (E-TS)    =  -26212.00741232     eV
(energies not corrected for finite basis set)
 
NB est. 0K energy (E-0.5TS)      =  -26211.86084244     eV
 
(SEDC) Total Energy Correction : -0.134638E+02 eV

Dispersion corrected final energy*, Ecor          =  -26225.17804518     eV
Dispersion corrected final free energy* (Ecor-TS) =  -26225.47118494     eV
NB dispersion corrected est. 0K energy* (Ecor-0.5TS) =  -26225.32461506     eV

Writing analysis data to 9x9.castep_bin

Writing model to 9x9.check
++++++++++++++++++++++++++++++++++++++++++++++++++++++++++++++++++++++++++++++++
+++++++++++++++++++++++ Starting Transition State Search +++++++++++++++++++++++
++++++++++++++++++++++++++++++++++++++++++++++++++++++++++++++++++++++++++++++++
 
++++++++++++++++++++++++++++++++++++++++++++++++++++++++++++++++++++++++++++++++
+++++++++++++++++++++++ Linear synchronous transit method ++++++++++++++++++++++
++++++++++++++++++++++++++++++++++++++++++++++++++++++++++++++++++++++++++++++++
 
 +++++++++++++++++++++++++++++++++++++++++++++++++++++++
 Difference vector: Fractional components 
 +++++++++++++++++++++++++++++++++++++++++++++++++++++++
   -0.054033675   -0.023613933    0.098470398
    0.060463534    0.033069879    0.099500509
   -0.000049655   -0.000251720    0.001311098
    0.000017726   -0.000123633    0.001347290
    0.000106449    0.000051835    0.001727919
    0.000132637    0.000067317    0.002067596
    0.000139998    0.000081611    0.001499078
    0.000353895    0.000181539    0.002123681
    0.000079951    0.000061575    0.001697371
    0.000141649    0.000095820    0.002030924
   -0.000096244    0.000193124    0.001267222
   -0.000011228    0.000135996    0.001277047
   -0.000229833    0.000037445    0.000433223
    0.000058201    0.000110822    0.000439068
   -0.000100964   -0.000043742   -0.000464366
   -0.000078355   -0.000062884   -0.000315271
   -0.000096662   -0.000069982   -0.000445359
   -0.000071623   -0.000017057   -0.000294187
   -0.000213613   -0.000241591    0.000470953
    0.000076657   -0.000069251    0.000493041
   -0.000102512   -0.000099937    0.001419686
   -0.000038361   -0.000048618    0.000977636
   -0.000367382   -0.000564777    0.000002866
    0.000113141   -0.000114459    0.001108770
    0.000315224   -0.000283522   -0.003559860
    0.000252616   -0.000033816    0.000823857
    0.000320008    0.000632225   -0.003565781
    0.000251521    0.000321723    0.000809113
   -0.000383566    0.000205827    0.000014002
    0.000109204    0.000243435    0.001084886
   -0.000135200    0.000000060    0.001450441
   -0.000041619   -0.000000072    0.000961313
   -0.000053072    0.000042345    0.000442356
   -0.000093269    0.000042884    0.000026309
   -0.000140641   -0.000075318   -0.000213225
    0.000012387   -0.000006473   -0.000582978
   -0.000026331   -0.000081022    0.000426127
   -0.000076039   -0.000126824    0.000043510
   -0.000096592   -0.000056654    0.001917202
    0.000020805   -0.000086280    0.001351972
    0.000058773    0.000067430    0.002106682
   -0.000150152   -0.000140465    0.001399149
   -0.000312996    0.000207982   -0.003753170
    0.000065044    0.000222834   -0.003253704
    0.000616551    0.000318010   -0.028762275
    0.001837614    0.000936265   -0.008727853
   -0.000331721   -0.000488294   -0.003719515
    0.000051303   -0.000132240   -0.003242456
    0.000038336   -0.000020849    0.002158874
   -0.000191092   -0.000010796    0.001441887
   -0.000116138   -0.000019853    0.001950034
    0.000009074    0.000087204    0.001379069
   -0.000041259   -0.000062247    0.000623352
   -0.000048474   -0.000050604    0.000187203
   -0.000034085    0.000022392    0.000597521
   -0.000043684    0.000002684    0.000166999
   -0.000026023    0.000003454    0.001363162
   -0.000054444   -0.000013817    0.001367157
   -0.000066873    0.000029329    0.002631609
    0.000037297    0.000080684    0.002636802
    0.000006032    0.000087128    0.000624585
   -0.000023998    0.000075266    0.000608181
    0.001109501    0.001993229   -0.011160782
   -0.001106875    0.000877051   -0.011184289
    0.001087239   -0.000866273   -0.011152818
   -0.001131895   -0.001974962   -0.011167088
   -0.000031754   -0.000076393    0.000614058
   -0.000045831   -0.000097443    0.000639269
   -0.000087868   -0.000112436    0.002653982
    0.000010109   -0.000037368    0.002682325
   -0.000052144   -0.000041346    0.001396949
   -0.000068080   -0.000037631    0.001392197
   -0.000110532   -0.000064202    0.000534450
    0.000041067    0.000023830    0.000549066
   -0.000002887    0.000029030    0.000149071
   -0.000036754    0.000018702    0.000582860
   -0.000062980   -0.000106657    0.001338962
    0.000033813    0.000002345    0.001905052
    0.000152452    0.000010236    0.001389486
   -0.000087665    0.000022806    0.002107943
   -0.000051788    0.000148837   -0.003256805
    0.000300397    0.000498064   -0.003702290
   -0.001826949   -0.000908103   -0.008727730
   -0.000590243   -0.000292970   -0.028736090
   -0.000084173   -0.000219976   -0.003292593
    0.000280893   -0.000199795   -0.003719090
    0.000123320    0.000122237    0.001370637
   -0.000099755   -0.000097136    0.002102299
   -0.000092524    0.000027975    0.001384533
    0.000021217    0.000028750    0.001943168
   -0.000009806   -0.000031092    0.000191378
   -0.000037843   -0.000051354    0.000616247
   -0.000039597   -0.000013286   -0.000605166
    0.000069618    0.000029462   -0.000226583
    0.000056854   -0.000062835   -0.000020582
   -0.000003070   -0.000049066    0.000387566
    0.000041264    0.000012185    0.000922660
    0.000092822    0.000001437    0.001400077
   -0.000133866   -0.000224335    0.001036567
    0.000340554   -0.000208188   -0.000027798
   -0.000222226   -0.000297575    0.000773562
   -0.000283485   -0.000594098   -0.003576424
   -0.000230681    0.000066288    0.000766480
   -0.000301787    0.000303443   -0.003594696
   -0.000140891    0.000090915    0.001027321
    0.000336025    0.000536959   -0.000061599
    0.000020955    0.000016726    0.000949542
    0.000069976    0.000095291    0.001414923
    0.000067022    0.000122887    0.000038952
   -0.000020168    0.000041411    0.000452352
    0.000090418    0.000025888   -0.000235815
    0.000090008    0.000046715   -0.000452380
    0.000091110    0.000075682   -0.000251865
    0.000080643    0.000051511   -0.000474416
   -0.000049384   -0.000089252    0.000445025
    0.000202499   -0.000046310    0.000413555
    0.000042539   -0.000110951    0.001223738
    0.000082606   -0.000166895    0.001223468
   -0.000092040   -0.000032520    0.001941770
   -0.000072889   -0.000031571    0.001655327
   -0.000312523   -0.000167946    0.002029889
   -0.000151731   -0.000085561    0.001446104
   -0.000106092   -0.000082179    0.001976642
   -0.000074383   -0.000036483    0.001658497
    0.000020077    0.000135790    0.001280171
    0.000079023    0.000257213    0.001241751
   -0.000066516    0.000034850    0.000510635
    0.000199032    0.000233840    0.000465097
    0.000129282    0.000146454    0.000885026
    0.000126620    0.000147863    0.000276732
    0.000034788    0.000032735    0.000777538
    0.000231460    0.000110379   -0.000095709
    0.000143663   -0.000022954    0.000844567
    0.000128814   -0.000014862    0.000237160
    0.000047499    0.000084740    0.000895000
    0.000058503    0.000047717    0.000843079
   -0.000171896   -0.000080808    0.001040801
    0.000053605   -0.000010160    0.001447793
   -0.000126367   -0.000122310    0.001105461
   -0.000133090   -0.000166356    0.001840790
   -0.000134180   -0.000023795    0.001121132
   -0.000137830    0.000010706    0.001861275
   -0.000158128   -0.000087012    0.001118745
    0.000056229    0.000053038    0.001503200
    0.000069046   -0.000032503    0.000987575
    0.000061419    0.000015036    0.000926852
   -0.000017669   -0.000056692    0.001608773
    0.000219678    0.000092898    0.001208002
    0.000192096    0.000022853    0.001976021
    0.000167413    0.000026080    0.001250307
    0.000187419    0.000189856    0.001961989
    0.000165512    0.000138815    0.001227485
   -0.000018307    0.000052940    0.001537146
    0.000212039    0.000135576    0.001130430
   -0.000024196   -0.000007555    0.000851025
   -0.000017089   -0.000047736    0.000867622
   -0.000096191    0.000044829    0.000168760
   -0.000066612    0.000059814    0.000725987
   -0.000214642   -0.000108341   -0.000202139
    0.000018506    0.000001151    0.000657692
   -0.000098858   -0.000156937    0.000212350
   -0.000060008   -0.000145910    0.000782685
   -0.000024818   -0.000011584    0.000936568
   -0.000009374    0.000027000    0.000963161
 +++++++++++++++++++++++++++++++++++++++++++++++++++++++
 
 +++++++++++++++++++++++++++++++++++++++++++++++++++++++
 Periodic cell setup complete
 +++++++++++++++++++++++++++++++++++++++++++++++++++++++
 
------------------------------------------------------------------------ <-- SCF
SCF loop      Energy           Fermi           Energy gain       Timer   <-- SCF
                               energy          per atom          (sec)   <-- SCF
------------------------------------------------------------------------ <-- SCF
Initial  -2.62117112E+004  0.00000000E+000                       386.22  <-- SCF
      1  -2.62120075E+004 -2.38546942E+000   1.80664088E-003     398.42  <-- SCF
      2  -2.62120075E+004 -2.38546942E+000   8.58656091E-011     411.52  <-- SCF
      3  -2.62120075E+004 -2.38546566E+000   1.52705478E-007     424.23  <-- SCF
      4  -2.62120075E+004 -2.38546557E+000   1.66514392E-007     437.35  <-- SCF
------------------------------------------------------------------------ <-- SCF
 
Final energy, E             =  -26211.71437087     eV
Final free energy (E-TS)    =  -26212.00751052     eV
(energies not corrected for finite basis set)
 
NB est. 0K energy (E-0.5TS)      =  -26211.86094069     eV
 

Dispersion corrected final energy*, Ecor          =  -26225.17814349     eV
Dispersion corrected final free energy* (Ecor-TS) =  -26225.47128314     eV
NB dispersion corrected est. 0K energy* (Ecor-0.5TS) =  -26225.32471332     eV
 +++++++++++++++++++++++++++++++++++++++++++++++++++++++
 Reactant                      
 Path coordinate:                         0.00000
 Energy:                             -26225.47128 eV                            
 +++++++++++++++++++++++++++++++++++++++++++++++++++++++
 
            ++++++++++++++++++++++++++++++++++++++++++++++++++++++++++++++++++++
                             Coordinates: Fractional components
            ++++++++++++++++++++++++++++++++++++++++++++++++++++++++++++++++++++
            +  Element    Atom                                                 +
            +            Number           x          y          z              +
            ++++++++++++++++++++++++++++++++++++++++++++++++++++++++++++++++++++
            +H             1          0.446946   0.445729   0.588279           +
            +H             2          0.293393   0.368946   0.588227           +
            +C             1          0.073980   0.037121   0.498120           +
            +C             2         -0.000029   0.000086   0.497580           +
            +C             3          0.073665   0.147842   0.498731           +
            +C             4         -0.000343   0.110787   0.497574           +
            +C             5          0.073572   0.258956   0.499297           +
            +C             6         -0.000645   0.221784   0.497683           +
            +C             7          0.073613   0.370160   0.498689           +
            +C             8         -0.000383   0.333120   0.497536           +
            +C             9          0.073822   0.481204   0.498063           +
            +C            10         -0.000189   0.444221   0.497549           +
            +C            11          0.074027   0.592592   0.497612           +
            +C            12         -0.000208   0.555466   0.497600           +
            +C            13          0.073948   0.703883   0.497682           +
            +C            14         -0.000016   0.666826   0.497760           +
            +C            15          0.073978   0.815033   0.497712           +
            +C            16         -0.000001   0.777921   0.497780           +
            +C            17          0.074090   0.926257   0.497680           +
            +C            18         -0.000181   0.889023   0.497637           +
            +C            19          0.185040   0.036816   0.497892           +
            +C            20          0.110951  -0.000151   0.497958           +
            +C            21          0.185256   0.148415   0.501094           +
            +C            22          0.110683   0.110962   0.499257           +
            +C            23          0.184540   0.259335   0.505769           +
            +C            24          0.110495   0.222024   0.500402           +
            +C            25          0.184519   0.369602   0.505734           +
            +C            26          0.110466   0.332828   0.500378           +
            +C            27          0.185200   0.481225   0.500996           +
            +C            28          0.110586   0.444079   0.499192           +
            +C            29          0.185022   0.592643   0.497778           +
            +C            30          0.110825   0.555534   0.497874           +
            +C            31          0.184992   0.703799   0.497151           +
            +C            32          0.110920   0.666695   0.497497           +
            +C            33          0.185134   0.815092   0.497279           +
            +C            34          0.110867   0.777928   0.497625           +
            +C            35          0.185013   0.926081   0.497226           +
            +C            36          0.110995   0.889182   0.497560           +
            +C            37          0.296114   0.036719   0.496790           +
            +C            38          0.221938  -0.000207   0.497170           +
            +C            39          0.295993   0.147725   0.498750           +
            +C            40          0.222122   0.110945   0.499103           +
            +C            41          0.296384   0.258867   0.506459           +
            +C            42          0.221919   0.221773   0.505380           +
            +C            43          0.295462   0.369958   0.532278           +
            +C            44          0.220082   0.332250   0.511553           +
            +C            45          0.296387   0.481961   0.506357           +
            +C            46          0.221896   0.444553   0.505294           +
            +C            47          0.296051   0.592724   0.498622           +
            +C            48          0.222138   0.555585   0.498976           +
            +C            49          0.296256   0.703933   0.496689           +
            +C            50          0.221975   0.666695   0.497068           +
            +C            51          0.296234   0.815131   0.496646           +
            +C            52          0.222089   0.778031   0.497011           +
            +C            53          0.296193   0.926001   0.496690           +
            +C            54          0.222119   0.889075   0.497056           +
            +C            55          0.407162   0.036678   0.496583           +
            +C            56          0.333152  -0.000233   0.496550           +
            +C            57          0.407259   0.147735   0.497267           +
            +C            58          0.333051   0.110628   0.497242           +
            +C            59          0.407291   0.258982   0.501399           +
            +C            60          0.333117   0.221885   0.501394           +
            +C            61          0.406177   0.368309   0.514682           +
            +C            62          0.334275   0.332341   0.514674           +
            +C            63          0.406194   0.482340   0.514630           +
            +C            64          0.334283   0.446385   0.514608           +
            +C            65          0.407357   0.592804   0.501344           +
            +C            66          0.333167   0.555690   0.501289           +
            +C            67          0.407420   0.704057   0.497188           +
            +C            68          0.333189   0.666911   0.497126           +
            +C            69          0.407398   0.815105   0.496515           +
            +C            70          0.333304   0.778047   0.496479           +
            +C            71          0.407447   0.926111   0.496646           +
            +C            72          0.333237   0.889108   0.496599           +
            +C            73          0.518364   0.036690   0.497166           +
            +C            74          0.444294  -0.000253   0.496771           +
            +C            75          0.518460   0.147933   0.497269           +
            +C            76          0.444186   0.110718   0.496845           +
            +C            77          0.518311   0.259055   0.499176           +
            +C            78          0.444393   0.221922   0.498782           +
            +C            79          0.518548   0.370108   0.505485           +
            +C            80          0.444060   0.332715   0.506468           +
            +C            81          0.520366   0.482426   0.511695           +
            +C            82          0.444968   0.444721   0.532326           +
            +C            83          0.518587   0.592948   0.505494           +
            +C            84          0.444102   0.555831   0.506430           +
            +C            85          0.518425   0.703804   0.499185           +
            +C            86          0.444510   0.666983   0.498745           +
            +C            87          0.518676   0.815112   0.497228           +
            +C            88          0.444403   0.778029   0.496776           +
            +C            89          0.518563   0.926138   0.497122           +
            +C            90          0.444493   0.889214   0.496724           +
            +C            91          0.629604   0.036778   0.497740           +
            +C            92          0.555390  -0.000226   0.497394           +
            +C            93          0.629530   0.147928   0.497695           +
            +C            94          0.555439   0.110838   0.497355           +
            +C            95          0.629644   0.259090   0.498099           +
            +C            96          0.555416   0.221980   0.497989           +
            +C            97          0.629892   0.370559   0.499423           +
            +C            98          0.555248   0.333426   0.501210           +
            +C            99          0.630000   0.481829   0.500612           +
            +C           100          0.555920   0.445063   0.505923           +
            +C           101          0.630004   0.592677   0.500613           +
            +C           102          0.555932   0.555352   0.505931           +
            +C           103          0.629934   0.703869   0.499450           +
            +C           104          0.555308   0.666341   0.501239           +
            +C           105          0.629778   0.815138   0.498110           +
            +C           106          0.555577   0.778000   0.497988           +
            +C           107          0.629683   0.926021   0.497665           +
            +C           108          0.555678   0.889146   0.497307           +
            +C           109          0.740699   0.036790   0.497784           +
            +C           110          0.666616  -0.000172   0.497790           +
            +C           111          0.740732   0.147852   0.497785           +
            +C           112          0.666576   0.110776   0.497807           +
            +C           113          0.740947   0.259250   0.497728           +
            +C           114          0.666508   0.222059   0.497818           +
            +C           115          0.740921   0.370511   0.497756           +
            +C           116          0.666720   0.333454   0.498288           +
            +C           117          0.741108   0.481607   0.497791           +
            +C           118          0.666925   0.444511   0.498937           +
            +C           119          0.741362   0.592946   0.497926           +
            +C           120          0.666966   0.555738   0.499525           +
            +C           121          0.741085   0.704015   0.497784           +
            +C           122          0.666925   0.666922   0.498936           +
            +C           123          0.740936   0.814954   0.497757           +
            +C           124          0.666775   0.777808   0.498310           +
            +C           125          0.740980   0.926114   0.497721           +
            +C           126          0.666648   0.888982   0.497806           +
            +C           127          0.851890   0.036700   0.497455           +
            +C           128          0.777797  -0.000260   0.497660           +
            +C           129          0.851998   0.147972   0.497433           +
            +C           130          0.777637   0.110759   0.497700           +
            +C           131          0.851964   0.259241   0.497432           +
            +C           132          0.777821   0.222125   0.497655           +
            +C           133          0.852102   0.370375   0.497493           +
            +C           134          0.777947   0.333276   0.497629           +
            +C           135          0.852383   0.481746   0.497508           +
            +C           136          0.777993   0.444532   0.497604           +
            +C           137          0.852366   0.592958   0.497473           +
            +C           138          0.778246   0.555869   0.497592           +
            +C           139          0.852340   0.703965   0.497477           +
            +C           140          0.778223   0.666903   0.497591           +
            +C           141          0.852287   0.815119   0.497498           +
            +C           142          0.777940   0.777965   0.497596           +
            +C           143          0.851971   0.926100   0.497488           +
            +C           144          0.777926   0.889166   0.497620           +
            +C           145          0.963097   0.036981   0.497420           +
            +C           146          0.888844  -0.000210   0.497400           +
            +C           147          0.962841   0.147990   0.497380           +
            +C           148          0.888864   0.110892   0.497325           +
            +C           149          0.962857   0.259038   0.497357           +
            +C           150          0.888896   0.221971   0.497305           +
            +C           151          0.963130   0.370388   0.497387           +
            +C           152          0.888912   0.333229   0.497380           +
            +C           153          0.963182   0.481643   0.497505           +
            +C           154          0.889194   0.444609   0.497496           +
            +C           155          0.963298   0.592756   0.497642           +
            +C           156          0.889319   0.555711   0.497539           +
            +C           157          0.963446   0.704082   0.497748           +
            +C           158          0.889256   0.666928   0.497559           +
            +C           159          0.963257   0.815186   0.497663           +
            +C           160          0.889266   0.778157   0.497541           +
            +C           161          0.963013   0.925974   0.497523           +
            +C           162          0.889029   0.889013   0.497490           +
            ++++++++++++++++++++++++++++++++++++++++++++++++++++++++++++++++++++
                           Forces: Cartesian components: eV/A                          
            ++++++++++++++++++++++++++++++++++++++++++++++++++++++++++++++++++++
            +  Element    Atom                                                 +
            +            Number           x          y          z              +
            ++++++++++++++++++++++++++++++++++++++++++++++++++++++++++++++++++++
            +H             1          0.003697   0.002041  -0.018060           +
            +H             2         -0.002657  -0.000321  -0.018688           +
            +C             1          0.000108   0.002948  -0.000103           +
            +C             2          0.002337   0.005472  -0.000165           +
            +C             3         -0.002048  -0.008175  -0.000247           +
            +C             4          0.000599   0.007579  -0.001760           +
            +C             5         -0.006880  -0.007805   0.001491           +
            +C             6          0.006939   0.006295   0.004538           +
            +C             7         -0.007476  -0.000551  -0.000449           +
            +C             8          0.005732   0.000361  -0.001025           +
            +C             9         -0.001904  -0.000462  -0.001067           +
            +C            10          0.005819  -0.001688  -0.000839           +
            +C            11          0.004376  -0.010010   0.002087           +
            +C            12          0.009062  -0.001481   0.001975           +
            +C            13         -0.000819  -0.000543  -0.003319           +
            +C            14          0.001892   0.002632  -0.004632           +
            +C            15          0.001576  -0.001109  -0.003339           +
            +C            16          0.000774   0.002260  -0.004820           +
            +C            17         -0.007422   0.012675   0.001521           +
            +C            18          0.005485   0.004732   0.001606           +
            +C            19          0.000258   0.005056  -0.003942           +
            +C            20          0.000649  -0.002980  -0.003391           +
            +C            21         -0.000314  -0.004173   0.001788           +
            +C            22         -0.006888  -0.010742   0.005890           +
            +C            23         -0.004427  -0.002644   0.006111           +
            +C            24         -0.006233   0.007485   0.002333           +
            +C            25         -0.002684  -0.002230   0.005168           +
            +C            26          0.003987  -0.006722   0.002099           +
            +C            27          0.000813   0.000458   0.001332           +
            +C            28         -0.012398   0.001455   0.005548           +
            +C            29          0.003560   0.000635  -0.003724           +
            +C            30         -0.002978  -0.000846  -0.003241           +
            +C            31          0.002727  -0.002010  -0.002593           +
            +C            32          0.010768  -0.002762   0.000317           +
            +C            33         -0.001034  -0.000516  -0.005385           +
            +C            34         -0.000862   0.000094  -0.005778           +
            +C            35          0.000879   0.005418  -0.002273           +
            +C            36          0.001670   0.009352   0.000325           +
            +C            37         -0.001124   0.011441   0.001610           +
            +C            38         -0.004269  -0.004901  -0.002211           +
            +C            39          0.003597  -0.008683   0.002260           +
            +C            40         -0.000537  -0.010097   0.003434           +
            +C            41         -0.000841   0.000406   0.002638           +
            +C            42         -0.006318   0.005842   0.001584           +
            +C            43          0.003309   0.004013   0.002100           +
            +C            44          0.000046   0.001198   0.014530           +
            +C            45          0.002028  -0.004357   0.004050           +
            +C            46          0.003734  -0.009514   0.001299           +
            +C            47         -0.003504   0.004614   0.002495           +
            +C            48         -0.008863   0.004348   0.003995           +
            +C            49          0.008025  -0.002506   0.000754           +
            +C            50         -0.005905  -0.001254  -0.002634           +
            +C            51         -0.000428  -0.000086  -0.002236           +
            +C            52          0.003036  -0.005333  -0.006207           +
            +C            53          0.001002   0.001927  -0.002543           +
            +C            54         -0.004445   0.005117  -0.006605           +
            +C            55         -0.001513   0.007789  -0.000089           +
            +C            56         -0.004209   0.005686  -0.001662           +
            +C            57         -0.003437  -0.000191   0.001045           +
            +C            58          0.010357  -0.001456   0.002248           +
            +C            59          0.004418  -0.001345   0.003282           +
            +C            60          0.004503  -0.000710   0.002402           +
            +C            61         -0.005322  -0.008876   0.016331           +
            +C            62         -0.001541   0.009474   0.018268           +
            +C            63         -0.012907  -0.001724   0.018626           +
            +C            64          0.007194  -0.003939   0.019539           +
            +C            65          0.000521   0.001514   0.001411           +
            +C            66          0.003095   0.000958   0.002471           +
            +C            67         -0.001940  -0.001885   0.001312           +
            +C            68          0.001811   0.008582   0.003350           +
            +C            69          0.004948  -0.002234  -0.000667           +
            +C            70          0.003888  -0.004390  -0.002597           +
            +C            71         -0.004374  -0.001959  -0.002641           +
            +C            72          0.009441   0.003726  -0.000744           +
            +C            73         -0.002707   0.002298  -0.005063           +
            +C            74          0.005066  -0.006997  -0.005839           +
            +C            75         -0.002959   0.001072  -0.001757           +
            +C            76         -0.008629   0.002907   0.001687           +
            +C            77         -0.000079  -0.005245   0.004110           +
            +C            78          0.003737  -0.002558   0.002119           +
            +C            79          0.000272   0.004896  -0.004392           +
            +C            80          0.003105  -0.001227   0.009049           +
            +C            81          0.001038   0.000788   0.012692           +
            +C            82         -0.003345  -0.000191   0.007785           +
            +C            83          0.005080  -0.002215  -0.004840           +
            +C            84         -0.001081  -0.000543   0.011022           +
            +C            85         -0.002901   0.003721   0.003262           +
            +C            86         -0.000242   0.004217   0.001348           +
            +C            87         -0.000324   0.000751  -0.002282           +
            +C            88         -0.002155  -0.007222   0.002023           +
            +C            89         -0.000099  -0.000080  -0.003550           +
            +C            90         -0.003551   0.003714  -0.004630           +
            +C            91          0.000758   0.000362  -0.007174           +
            +C            92         -0.001033  -0.003463  -0.003168           +
            +C            93         -0.002853   0.000239  -0.001482           +
            +C            94         -0.002010   0.003228  -0.003292           +
            +C            95         -0.000266   0.000524  -0.003320           +
            +C            96         -0.004200  -0.001134  -0.001626           +
            +C            97          0.004817  -0.001279   0.007253           +
            +C            98         -0.003163  -0.009382   0.001049           +
            +C            99         -0.000549   0.004168  -0.000136           +
            +C           100          0.007625  -0.002772   0.005663           +
            +C           101          0.003338  -0.001770   0.000525           +
            +C           102          0.002140   0.005785   0.005942           +
            +C           103          0.002082   0.007137   0.006597           +
            +C           104         -0.008738   0.001612   0.000716           +
            +C           105          0.001687  -0.000037  -0.004065           +
[...]
             C 59  -- C 79                  -0.17        2.47679
             C 7   -- C 25                  -0.17        2.47686
             C 98  -- C 118                 -0.17        2.47686
             C 48  -- C 68                  -0.17        2.47687
             C 66  -- C 86                  -0.17        2.47693
             C 118 -- C 138                 -0.17        2.47709
             C 46  -- C 64                  -0.18        2.47725
             C 47  -- C 67                  -0.17        2.47726
             C 77  -- C 97                  -0.17        2.47749
             C 79  -- C 99                  -0.17        2.47756
             C 61  -- C 79                  -0.18        2.47769
             C 42  -- C 62                  -0.18        2.47783
             C 3   -- C 23                  -0.17        2.47784
             C 21  -- C 23                  -0.17        2.47826
             C 98  -- C 116                 -0.17        2.47827
             C 25  -- C 27                  -0.17        2.47852
             C 96  -- C 98                  -0.17        2.47885
             C 98  -- C 100                 -0.17        2.47889
             C 27  -- C 29                  -0.17        2.47891
             C 102 -- C 104                 -0.17        2.47929
             C 104 -- C 124                 -0.17        2.47935
             C 104 -- C 106                 -0.17        2.47970
             C 63  -- C 83                  -0.18        2.48102
             C 23  -- C 41                  -0.17        2.48129
             C 100 -- C 118                 -0.17        2.48153
             C 84  -- C 102                 -0.17        2.48174
             C 102 -- C 122                 -0.17        2.48280
             C 25  -- C 45                  -0.17        2.48340
             C 42  -- C 44                  -0.18        2.48404
             C 44  -- C 46                  -0.18        2.48464
             C 79  -- C 81                  -0.18        2.48469
             C 81  -- C 83                  -0.18        2.48515
             C 80  -- C 100                 -0.17        2.48545
             C 43  -- C 45                  -0.17        2.50522
             C 82  -- C 84                  -0.17        2.50559
             C 80  -- C 82                  -0.17        2.50568
             C 41  -- C 43                  -0.17        2.50586
             C 25  -- C 43                  -0.16        2.50987
             C 44  -- C 62                  -0.16        2.51010
             C 82  -- C 100                 -0.16        2.51092
             C 63  -- C 81                  -0.16        2.51095
             C 23  -- C 43                  -0.16        2.51123
             C 44  -- C 64                  -0.16        2.51229
             C 82  -- C 102                 -0.16        2.51375
             C 61  -- C 81                  -0.16        2.51395
             C 62  -- C 64                  -0.14        2.53054
             C 61  -- C 63                  -0.14        2.53068
               H 1 -- C 64                  -0.11        2.61193
               H 1 -- C 62                  -0.11        2.61339
               H 2 -- C 61                  -0.11        2.61995
               H 2 -- C 63                  -0.11        2.62157
               H 1 -- C 81                  -0.06        2.65162
               H 2 -- C 44                  -0.06        2.65511
               H 1 -- C 43                  -0.07        2.69520
               H 2 -- C 82                  -0.07        2.70179
             C 43  -- C 82                  -0.10        2.81961
             C 34  -- C 157                 -0.10        2.83683
             C 73  -- C 90                  -0.11        2.83731
             C 12  -- C 135                 -0.10        2.83780
             C 28  -- C 151                 -0.10        2.83786
             C 18  -- C 141                 -0.10        2.83836
             C 36  -- C 159                 -0.10        2.83869
             C 30  -- C 153                 -0.10        2.83896
             C 55  -- C 72                  -0.10        2.83897
             C 32  -- C 155                 -0.10        2.83906
             C 63  -- C 66                  -0.11        2.83929
             C 14  -- C 137                 -0.10        2.84006
             C 37  -- C 54                  -0.10        2.84011
             C 74  -- C 89                  -0.10        2.84011
             C 6   -- C 129                 -0.10        2.84020
             C 91  -- C 108                 -0.10        2.84035
             C 20  -- C 161                 -0.10        2.84041
             C 22  -- C 145                 -0.10        2.84042
             C 59  -- C 62                  -0.11        2.84047
             C 16  -- C 139                 -0.10        2.84089
             C 10  -- C 133                 -0.10        2.84101
             C 127 -- C 144                 -0.10        2.84111
             C 56  -- C 71                  -0.10        2.84118
             C 19  -- C 36                  -0.10        2.84134
             C 60  -- C 61                  -0.11        2.84209
             C 109 -- C 126                 -0.10        2.84224
             C 2   -- C 143                 -0.10        2.84232
             C 20  -- C 35                  -0.10        2.84266
             C 8   -- C 131                 -0.10        2.84319
             C 38  -- C 53                  -0.10        2.84344
             C 64  -- C 65                  -0.11        2.84348
             C 17  -- C 38                  -0.10        2.84395
             C 125 -- C 146                 -0.10        2.84404
             C 26  -- C 149                 -0.10        2.84417
             C 4   -- C 127                 -0.10        2.84423
             C 128 -- C 143                 -0.10        2.84442
             C 92  -- C 107                 -0.10        2.84448
             C 2   -- C 17                  -0.10        2.84597
             C 146 -- C 161                 -0.10        2.84606
             C 24  -- C 147                 -0.10        2.84613
             C 2   -- C 3                   -0.10        2.84643
             C 110 -- C 125                 -0.10        2.84706
             C 1   -- C 40                  -0.10        2.84726
             C 107 -- C 128                 -0.10        2.84764
             C 52  -- C 53                  -0.10        2.84764
             C 56  -- C 57                  -0.10        2.84809
             C 51  -- C 54                  -0.10        2.84850
             C 160 -- C 161                 -0.10        2.84879
             C 23  -- C 26                  -0.10        2.84881
             C 21  -- C 60                  -0.10        2.84886
             C 145 -- C 148                 -0.10        2.84896
             C 159 -- C 162                 -0.10        2.84897
             C 147 -- C 150                 -0.10        2.84901
             C 106 -- C 107                 -0.10        2.84908
             C 38  -- C 39                  -0.10        2.84911
             C 91  -- C 130                 -0.10        2.84916
             C 24  -- C 25                  -0.10        2.84917
             C 70  -- C 71                  -0.10        2.84925
             C 110 -- C 111                 -0.10        2.84935
             C 15  -- C 18                  -0.10        2.84943
             C 145 -- C 162                 -0.10        2.84943
             C 123 -- C 162                 -0.10        2.84944
             C 15  -- C 54                  -0.10        2.84950
             C 1   -- C 4                   -0.10        2.84957
             C 99  -- C 102                 -0.10        2.84967
             C 109 -- C 148                 -0.10        2.84969
             C 1   -- C 18                  -0.10        2.84976
             C 109 -- C 112                 -0.10        2.84978
             C 88  -- C 89                  -0.10        2.84980
             C 41  -- C 80                  -0.10        2.84988
             C 55  -- C 58                  -0.10        2.85003
             C 13  -- C 16                  -0.10        2.85023
             C 11  -- C 50                  -0.10        2.85027
             C 69  -- C 72                  -0.10        2.85038
             C 4   -- C 5                   -0.10        2.85045
             C 92  -- C 93                  -0.10        2.85066
             C 74  -- C 75                  -0.10        2.85075
             C 34  -- C 35                  -0.10        2.85075
             C 89  -- C 110                 -0.10        2.85081
             C 33  -- C 36                  -0.10        2.85084
             C 73  -- C 76                  -0.10        2.85105
             C 148 -- C 149                 -0.10        2.85116
             C 91  -- C 94                  -0.10        2.85126
             C 19  -- C 58                  -0.10        2.85129
             C 45  -- C 84                  -0.10        2.85133
             C 5   -- C 8                   -0.10        2.85140
             C 146 -- C 147                 -0.10        2.85140
             C 119 -- C 158                 -0.10        2.85144
             C 100 -- C 101                 -0.10        2.85150
             C 105 -- C 108                 -0.10        2.85152
             C 87  -- C 126                 -0.10        2.85174
             C 7   -- C 10                  -0.10        2.85174
             C 5   -- C 44                  -0.10        2.85182
             C 65  -- C 104                 -0.10        2.85189
             C 138 -- C 139                 -0.10        2.85202
             C 128 -- C 129                 -0.10        2.85205
             C 113 -- C 152                 -0.10        2.85206
             C 153 -- C 156                 -0.10        2.85217
             C 13  -- C 52                  -0.10        2.85221
             C 27  -- C 66                  -0.10        2.85232
             C 127 -- C 130                 -0.10        2.85232
             C 59  -- C 98                  -0.10        2.85239
             C 3   -- C 6                   -0.10        2.85248
             C 105 -- C 144                 -0.10        2.85249
             C 137 -- C 140                 -0.10        2.85249
             C 111 -- C 150                 -0.10        2.85249
             C 45  -- C 48                  -0.10        2.85250
             C 9   -- C 48                  -0.10        2.85256
             C 124 -- C 125                 -0.10        2.85262
             C 67  -- C 70                  -0.10        2.85265
             C 142 -- C 143                 -0.10        2.85270
             C 87  -- C 90                  -0.10        2.85274
             C 14  -- C 15                  -0.10        2.85288
             C 157 -- C 160                 -0.10        2.85290
             C 40  -- C 41                  -0.10        2.85296
             C 35  -- C 56                  -0.10        2.85298
             C 77  -- C 80                  -0.10        2.85303
             C 47  -- C 50                  -0.10        2.85306
             C 132 -- C 133                 -0.10        2.85308
             C 71  -- C 92                  -0.10        2.85310
             C 140 -- C 141                 -0.10        2.85322
             C 149 -- C 152                 -0.10        2.85323
             C 3   -- C 42                  -0.10        2.85328
             C 131 -- C 134                 -0.10        2.85331
             C 122 -- C 123                 -0.10        2.85339
             C 121 -- C 124                 -0.10        2.85342
             C 115 -- C 118                 -0.10        2.85344
             C 8   -- C 9                   -0.10        2.85349
             C 7   -- C 46                  -0.10        2.85354
             C 29  -- C 32                  -0.10        2.85356
             C 103 -- C 142                 -0.10        2.85358
             C 154 -- C 155                 -0.10        2.85359
             C 141 -- C 144                 -0.10        2.85371
             C 93  -- C 96                  -0.10        2.85375
             C 75  -- C 78                  -0.10        2.85382
             C 158 -- C 159                 -0.10        2.85397
             C 155 -- C 158                 -0.10        2.85404
             C 33  -- C 72                  -0.10        2.85411
             C 94  -- C 95                  -0.10        2.85413
             C 49  -- C 52                  -0.10        2.85415
             C 123 -- C 126                 -0.10        2.85419
             C 73  -- C 112                 -0.10        2.85424
             C 16  -- C 17                  -0.10        2.85425
             C 30  -- C 31                  -0.10        2.85431
             C 68  -- C 69                  -0.10        2.85431
             C 116 -- C 117                 -0.10        2.85432
             C 37  -- C 76                  -0.10        2.85432
             C 32  -- C 33                  -0.10        2.85435
             C 31  -- C 34                  -0.10        2.85443
             C 117 -- C 120                 -0.10        2.85468
             C 120 -- C 121                 -0.10        2.85472
             C 37  -- C 40                  -0.10        2.85475
             C 121 -- C 160                 -0.10        2.85483
             C 11  -- C 14                  -0.10        2.85484
             C 150 -- C 151                 -0.10        2.85486
             C 6   -- C 7                   -0.10        2.85491
             C 75  -- C 114                 -0.10        2.85503
             C 135 -- C 138                 -0.10        2.85506
             C 65  -- C 68                  -0.10        2.85508
             C 21  -- C 24                  -0.10        2.85514
             C 139 -- C 142                 -0.10        2.85525
             C 86  -- C 87                  -0.10        2.85525
             C 115 -- C 154                 -0.10        2.85529
             C 101 -- C 104                 -0.10        2.85547
             C 129 -- C 132                 -0.10        2.85548
             C 130 -- C 131                 -0.10        2.85558
             C 156 -- C 157                 -0.10        2.85573
             C 151 -- C 154                 -0.10        2.85575
             C 53  -- C 74                  -0.10        2.85577
             C 50  -- C 51                  -0.10        2.85587
             C 117 -- C 156                 -0.10        2.85589
             C 152 -- C 153                 -0.10        2.85592
             C 85  -- C 124                 -0.10        2.85593
             C 136 -- C 137                 -0.10        2.85594
             C 9   -- C 12                  -0.10        2.85597
             C 111 -- C 114                 -0.10        2.85603
             C 93  -- C 132                 -0.10        2.85605
             C 67  -- C 106                 -0.10        2.85605
             C 134 -- C 135                 -0.10        2.85609
             C 112 -- C 113                 -0.10        2.85619
             C 81  -- C 120                 -0.10        2.85622
             C 12  -- C 13                  -0.10        2.85623
             C 57  -- C 60                  -0.10        2.85624
             C 26  -- C 27                  -0.10        2.85633
             C 57  -- C 96                  -0.10        2.85642
             C 119 -- C 122                 -0.10        2.85646
             C 58  -- C 59                  -0.10        2.85649
             C 19  -- C 22                  -0.10        2.85653
             C 84  -- C 85                  -0.10        2.85660
             C 39  -- C 78                  -0.10        2.85662
             C 118 -- C 119                 -0.10        2.85665
             C 133 -- C 136                 -0.10        2.85671
             C 55  -- C 94                  -0.10        2.85675
             C 20  -- C 21                  -0.10        2.85689
             C 69  -- C 108                 -0.10        2.85690
             C 113 -- C 116                 -0.10        2.85690
             C 97  -- C 136                 -0.10        2.85691
             C 85  -- C 88                  -0.10        2.85695
             C 10  -- C 11                  -0.10        2.85699
             C 29  -- C 68                  -0.10        2.85706
             C 114 -- C 115                 -0.10        2.85706
             C 49  -- C 88                  -0.10        2.85726
             C 83  -- C 86                  -0.10        2.85728
             C 98  -- C 99                  -0.10        2.85735
             C 83  -- C 122                 -0.10        2.85740
             C 76  -- C 77                  -0.10        2.85775
             C 51  -- C 90                  -0.10        2.85781
             C 103 -- C 106                 -0.10        2.85812
             C 39  -- C 42                  -0.10        2.85840
             C 77  -- C 116                 -0.10        2.85842
             C 95  -- C 134                 -0.10        2.85848
             C 31  -- C 70                  -0.10        2.85859
             C 47  -- C 86                  -0.10        2.85867
             C 48  -- C 49                  -0.10        2.85909
             C 28  -- C 29                  -0.10        2.85914
             C 66  -- C 67                  -0.10        2.85915
             C 101 -- C 140                 -0.10        2.85938
             C 79  -- C 118                 -0.10        2.85942
             C 96  -- C 97                  -0.10        2.85987
             C 46  -- C 47                  -0.10        2.86001
             C 22  -- C 23                  -0.10        2.86019
             C 78  -- C 79                  -0.10        2.86034
             C 99  -- C 138                 -0.10        2.86060
             C 27  -- C 30                  -0.10        2.86148
             C 95  -- C 98                  -0.10        2.86191
             C 25  -- C 28                  -0.10        2.86241
             C 104 -- C 105                 -0.10        2.86299
             C 97  -- C 100                 -0.10        2.86324
             C 102 -- C 103                 -0.10        2.86539
             C 23  -- C 62                  -0.09        2.86940
             C 25  -- C 64                  -0.09        2.87048
             C 63  -- C 102                 -0.09        2.87177
             C 61  -- C 100                 -0.09        2.87221
             C 81  -- C 84                  -0.09        2.87634
             C 41  -- C 44                  -0.09        2.87696
             C 44  -- C 45                  -0.09        2.87837
             C 80  -- C 81                  -0.09        2.87972
             C 61  -- C 64                  -0.07        2.89368
             C 43  -- C 46                  -0.09        2.89456
             C 79  -- C 82                  -0.09        2.89478
             C 42  -- C 43                  -0.09        2.89574
             C 62  -- C 63                  -0.07        2.89654
             C 82  -- C 83                  -0.09        2.89840
======================================================================
 

Writing analysis data to 9x9.castep_bin

Writing model to 9x9.check
 
 A BibTeX formatted list of references used in this run has been written to 
 9x9.bib
 
Initialisation time =      3.85 s
Calculation time    =  21734.49 s
Finalisation time   =      4.33 s
Total time          =  21742.67 s
Peak Memory Use     = 1077080 kB
  
Overall parallel efficiency rating: Poor (44%)                                  
  
Data was distributed by:-
G-vector (128-way); efficiency rating: Poor (44%)                               
