 +-------------------------------------------------+
 |                                                 |
 |      CCC   AA    SSS  TTTTT  EEEEE  PPPP        |
 |     C     A  A  S       T    E      P   P       |
 |     C     AAAA   SS     T    EEE    PPPP        |
 |     C     A  A     S    T    E      P           |
 |      CCC  A  A  SSS     T    EEEEE  P           |
 |                                                 |
 +-------------------------------------------------+
 |                                                 |
 | Welcome to Academic Release CASTEP version 21.11|          
 | Ab Initio Total Energy Program                  |
 |                                                 |
 | Authors:                                        |
 | M. Segall, M. Probert, C. Pickard, P. Hasnip,   |
 | S. Clark, K. Refson, J. R. Yates, M. Payne      |
 |                                                 |
 | Contributors:                                   |
 | P. Lindan, P. Haynes, J. White, V. Milman,      |
 | N. Govind, M. Gibson, P. Tulip, V. Cocula,      |
 | B. Montanari, D. Quigley, M. Glover,            |
 | L. Bernasconi, A. Perlov, M. Plummer,           |
 | E. McNellis, J. Meyer, J. Gale, D. Jochym       |
 | J. Aarons, B. Walker, R. Gillen, D. Jones       |
 | T. Green, I. J. Bush, C. J. Armstrong,          |
 | E. J. Higgins, E. L. Brown, M. S. McFly,        |
 | J. Wilkins, B-C. Shih, P. J. P. Byrne,          |
 | R. J. Maurer, J. C. Womack, J. Dziedzic,        |
 | A. Bartok-Partay, L. LeBlanc                    |
 |                                                 |
 | Copyright (c) 2000 - 2021                       |
 |                                                 |
 |     Distributed under license from Cambridge    |
 |     Enterprise for academic use only.           |
 |                                                 |
 | Please cite                                     |
 |                                                 |
 |     "First principles methods using CASTEP"     |
 |                                                 |
 |         Zeitschrift fuer Kristallographie       |
 |           220(5-6) pp. 567-570 (2005)           |
 |                                                 |
 | S. J. Clark, M. D. Segall, C. J. Pickard,       |
 | P. J. Hasnip, M. J. Probert, K. Refson,         |
 | M. C. Payne                                     |
 |                                                 |
 |       in all publications arising from          |
 |              your use of CASTEP                 |
 |                                                 |
 +-------------------------------------------------+
 |                                                 |
 |              http://www.castep.org              |
 |                                                 |
 +-------------------------------------------------+
 
 
 
 Compiled for linux_x86_64_cray-XT on Tue, 01 Mar 2022 09:19:15 +0000
 from code version 7d4405a8a+  HEAD  Sat Nov 27 13:38:33 2021 +0000
 Compiler: Cray Fortran 12.0.3; Optimisation: fast
 MATHLIBS: LibSci (LAPACK version 3.6.1)
 FFT Lib : fftw3 version commercial-fftw-3.3.8-sse2-avx-avx2-avx2_128
 Fundamental constants values: CODATA 2014
 
 Run started: Fri, 28 Oct 2022 13:56:29 -0100
 
 Atomic calculation performed for H: 1s1
 
 Converged in 41 iterations to an ae energy of -12.488 eV
 
   ============================================================                
   | Pseudopotential Report - Date of generation 28-10-2022   |                
   ------------------------------------------------------------                
   | Element: H Ionic charge:  1.00 Level of theory: PBE      |                
   | Atomic Solver: Koelling-Harmon                           |                
   |                                                          |                
   |               Reference Electronic Structure             |                
   |         Orbital         Occupation         Energy        |                
   |            1s              1.000           -0.239        |                
   |                                                          |                
   |                 Pseudopotential Definition               |                
   |        Beta     l      e      Rc     scheme   norm       |                
   |          1      0   -0.239   0.803     qc      1         |                
   |         loc     1    0.000   0.803     pn      0         |                
   |                                                          |                
   | No charge augmentation                                   |                
   | No partial core correction                               |                
   ------------------------------------------------------------                
   | "1|0.8|14|16|19|10N(qc=8)"                               |                
   ------------------------------------------------------------                
   |      Author: Chris J. Pickard, Cambridge University      |                
   ============================================================                
 
 Atomic calculation performed for C: 1s2 2s2 2p2
 
 Converged in 54 iterations to an ae energy of -1027.632 eV
 
   ============================================================                
   | Pseudopotential Report - Date of generation 28-10-2022   |                
   ------------------------------------------------------------                
   | Element: C Ionic charge:  4.00 Level of theory: PBE      |                
   | Atomic Solver: Koelling-Harmon                           |                
   |                                                          |                
   |               Reference Electronic Structure             |                
   |         Orbital         Occupation         Energy        |                
   |            2s              2.000           -0.505        |                
   |            2p              2.000           -0.194        |                
   |                                                          |                
   |                 Pseudopotential Definition               |                
   |        Beta     l      e      Rc     scheme   norm       |                
   |          1      0   -0.505   1.201     qc      1         |                
   |         loc     1   -0.194   1.201     qc      1         |                
   |                                                          |                
   | No charge augmentation                                   |                
   | Partial core correction Rc = 0.839                       |                
   ------------------------------------------------------------                
   | "1|1.2|17|20|23|20N:21L(qc=8)"                           |                
   ------------------------------------------------------------                
   |      Author: Chris J. Pickard, Cambridge University      |                
   ============================================================                
 
 Pseudo atomic calculation performed for H 1s1
 
 Converged in 13 iterations to a total energy of -12.4790 eV
 
 Pseudo atomic calculation performed for C 2s2 2p2
 
 Converged in 18 iterations to a total energy of -152.4291 eV
 Calculation parallelised over 128 processes.
 Data is distributed by G-vector(128-way)

 ************************************ Title ************************************
 

 ***************************** General Parameters ******************************
  
 output verbosity                               : normal  (1)
 write checkpoint data to                       : 9x9.check
 type of calculation                            : transition state search
 stress calculation                             : off
 density difference calculation                 : off
 electron localisation func (ELF) calculation   : off
 Hirshfeld analysis                             : off
 polarisation (Berry phase) analysis            : off
 molecular orbital projected DOS                : off
 deltaSCF calculation                           : off
 unlimited duration calculation
 timing information                             : on
 memory usage estimate                          : on
 write extra output files                       : on
 write final potential to formatted file        : off
 write final density to formatted file          : off
 write structure in CELL formatted file         : on
 write BibTeX reference list                    : on
 write OTFG pseudopotential files               : on
 write electrostatic potential file             : on
 write bands file                               : on
 checkpoint writing                             : both castep_bin and check files
  
 output         length unit                     : A
 output           mass unit                     : amu
 output           time unit                     : ps
 output         charge unit                     : e
 output           spin unit                     : hbar/2
 output         energy unit                     : eV
 output          force unit                     : eV/A
 output       velocity unit                     : A/ps
 output       pressure unit                     : GPa
 output     inv_length unit                     : 1/A
 output      frequency unit                     : cm-1
 output force constant unit                     : eV/A**2
 output         volume unit                     : A**3
 output   IR intensity unit                     : (D/A)**2/amu
 output         dipole unit                     : D
 output         efield unit                     : eV/A/e
 output        entropy unit                     : J/mol/K
 output    efield chi2 unit                     : pm/V
  
 wavefunctions paging                           : none
 random number generator seed                   : randomised (135629335)
 data distribution                              : optimal for this architecture
 optimization strategy                          : maximize speed(+++)

 *********************** Exchange-Correlation Parameters ***********************
  
 using functional                               : Perdew Burke Ernzerhof
 relativistic treatment                         : Koelling-Harmon
 DFT+D: Semi-empirical dispersion correction    : on
 SEDC with                                      : MBD@rsSCS method

 ************************* Pseudopotential Parameters **************************
  
 pseudopotential representation                 : reciprocal space
 <beta|phi> representation                      : reciprocal space
 spin-orbit coupling                            : off

 **************************** Basis Set Parameters *****************************
  
 plane wave basis set cut-off                   :   800.0000   eV
 size of standard grid                          :     1.7500
 size of   fine   gmax                          :    25.3584   1/A
 finite basis set correction                    : none

 **************************** Electronic Parameters ****************************
  
 number of  electrons                           :  649.0    
 net charge of system                           :  0.000    
 net spin   of system                           :  1.000    
 number of  up  spins                           :  325.0    
 number of down spins                           :  324.0    
 treating system as spin-polarized
 number of bands                                :        488

 ********************* Electronic Minimization Parameters **********************
  
 Method: Treating system as metallic with density mixing treatment of electrons,
         and number of  SD  steps               :          1
         and number of  CG  steps               :          4
  
 total energy / atom convergence tol.           : 0.1000E-05   eV
 eigen-energy convergence tolerance             : 0.3340E-06   eV
 max force / atom convergence tol.              : ignored
 convergence tolerance window                   :          3   cycles
 max. number of SCF cycles                      :        100
 number of fixed-spin iterations                :         10
 smearing scheme                                : Gaussian
 smearing width                                 : 0.2000       eV
 Fermi energy convergence tolerance             : 0.2721E-13   eV
 periodic dipole correction                     : NONE

 ************************** Density Mixing Parameters **************************
  
 density-mixing scheme                          : Pulay
 max. length of mixing history                  :         20
 charge density mixing amplitude                : 0.8000    
   spin density mixing amplitude                :  2.000    
 cut-off energy for mixing                      :  800.0       eV

 *********************** Population Analysis Parameters ************************
  
 Population analysis with cutoff                :  3.000       A
 Population analysis output                     : summary and pdos components

 ********************* Transition State Search Parameters **********************
  
 search method                                  : LSTQST
 LSTQST protocol                                : COMPLETELSTQST   
 max. number of QST iterations                  :         60
 max. number of CG  iterations                  :         60
 max. ionic |force| tolerance                   : 0.2571       eV/A
 max. ionic |displacement| tolerance            : 0.1000E-02   A

 *******************************************************************************
  
 
                           -------------------------------
                                      Unit Cell
                           -------------------------------
        Real Lattice(A)                      Reciprocal Lattice(1/A)
    22.2300000     0.0000000     0.0000000        0.282644413   0.163184826   0.000000000
   -11.1150000    19.2517450     0.0000000        0.000000000   0.326369652   0.000000000
     0.0000000     0.0000000    20.0340000        0.000000000   0.000000000   0.313626101
 
                       Lattice parameters(A)       Cell Angles
                    a =     22.230000          alpha =   90.000000
                    b =     22.230000          beta  =   90.000000
                    c =     20.034000          gamma =  120.000000
 
                       Current cell volume =          8573.876681       A**3
                                   density =             0.227055   AMU/A**3
                                           =             0.377034     g/cm^3
 
                           -------------------------------
                                     Cell Contents
                           -------------------------------
                         Total number of ions in cell =  163
                      Total number of species in cell =    2
                        Max number of any one species =  162
 
            xxxxxxxxxxxxxxxxxxxxxxxxxxxxxxxxxxxxxxxxxxxxxxxxxxxxxxxxxxxx
            x                          Reactant                        x
            xxxxxxxxxxxxxxxxxxxxxxxxxxxxxxxxxxxxxxxxxxxxxxxxxxxxxxxxxxxx
            x  Element    Atom        Fractional coordinates of atoms  x
            x            Number           u          v          w      x
            x----------------------------------------------------------x
            x  H            1         0.444402   0.444407   0.584099   x 
            x  C            1         0.073899   0.036756   0.498460   x 
            x  C            2        -0.000001  -0.000075   0.498603   x 
            x  C            3         0.073913   0.147909   0.498951   x 
            x  C            4        -0.000127   0.110896   0.498954   x 
            x  C            5         0.073824   0.259061   0.499588   x 
            x  C            6         0.000036   0.222108   0.499305   x 
            x  C            7         0.073861   0.370302   0.498950   x 
            x  C            8        -0.000166   0.333190   0.498958   x 
            x  C            9         0.073735   0.481453   0.498469   x 
            x  C           10        -0.000168   0.444371   0.498619   x 
            x  C           11         0.073794   0.592625   0.498553   x 
            x  C           12        -0.000146   0.555543   0.498592   x 
            x  C           13         0.073872   0.703835   0.498765   x 
            x  C           14        -0.000072   0.666759   0.498662   x 
            x  C           15         0.073905   0.814973   0.498760   x 
            x  C           16        -0.000055   0.777902   0.498654   x 
            x  C           17         0.073863   0.925965   0.498539   x 
            x  C           18        -0.000112   0.888976   0.498571   x 
            x  C           19         0.184886   0.036554   0.498273   x 
            x  C           20         0.110867  -0.000273   0.498385   x 
            x  C           21         0.184859   0.147709   0.498721   x 
            x  C           22         0.110874   0.110837   0.498614   x 
            x  C           23         0.185009   0.258921   0.500549   x 
            x  C           24         0.111037   0.222048   0.499585   x 
            x  C           25         0.184988   0.370444   0.500540   x 
            x  C           26         0.111009   0.333306   0.499581   x 
            x  C           27         0.184802   0.481493   0.498704   x 
            x  C           28         0.110776   0.444360   0.498612   x 
            x  C           29         0.184864   0.592717   0.498262   x 
            x  C           30         0.110737   0.555534   0.498393   x 
            x  C           31         0.184921   0.703875   0.498557   x 
            x  C           32         0.110830   0.666742   0.498655   x 
            x  C           33         0.184980   0.815000   0.498761   x 
            x  C           34         0.110886   0.777921   0.498812   x 
            x  C           35         0.184945   0.925906   0.498562   x 
            x  C           36         0.110907   0.889015   0.498649   x 
            x  C           37         0.295933   0.036509   0.498278   x 
            x  C           38         0.221941  -0.000350   0.498326   x 
            x  C           39         0.295884   0.147443   0.498693   x 
            x  C           40         0.221912   0.110588   0.498408   x 
            x  C           41         0.296049   0.258668   0.501094   x 
            x  C           42         0.221897   0.221814   0.499828   x 
            x  C           43         0.295902   0.370152   0.505718   x 
            x  C           44         0.222587   0.333483   0.502276   x 
            x  C           45         0.296049   0.481779   0.501071   x 
            x  C           46         0.221873   0.444447   0.499809   x 
            x  C           47         0.295941   0.592856   0.498659   x 
            x  C           48         0.221925   0.555694   0.498384   x 
            x  C           49         0.296072   0.703935   0.498255   x 
            x  C           50         0.221976   0.666811   0.498313   x 
            x  C           51         0.296192   0.815082   0.498541   x 
            x  C           52         0.222044   0.777981   0.498650   x 
            x  C           53         0.296153   0.925979   0.498550   x 
            x  C           54         0.222073   0.889048   0.498655   x 
            x  C           55         0.407137   0.036583   0.498470   x 
            x  C           56         0.333103  -0.000343   0.498396   x 
            x  C           57         0.407147   0.147644   0.498715   x 
            x  C           58         0.332963   0.110547   0.498409   x 
            x  C           59         0.406965   0.258659   0.501078   x 
            x  C           60         0.333025   0.221706   0.500093   x 
            x  C           61         0.406384   0.368394   0.510207   x 
            x  C           62         0.333385   0.332795   0.505635   x 
            x  C           63         0.406396   0.482420   0.510206   x 
            x  C           64         0.333391   0.444998   0.505625   x 
            x  C           65         0.407024   0.592756   0.501065   x 
            x  C           66         0.333069   0.555732   0.500061   x 
            x  C           67         0.407305   0.704001   0.498698   x 
            x  C           68         0.333096   0.666867   0.498380   x 
            x  C           69         0.407373   0.815148   0.498460   x 
            x  C           70         0.333255   0.778081   0.498383   x 
            x  C           71         0.407339   0.926044   0.498594   x 
            x  C           72         0.333312   0.889130   0.498579   x 
            x  C           73         0.518377   0.036732   0.498810   x 
            x  C           74         0.444295  -0.000223   0.498613   x 
            x  C           75         0.518315   0.147848   0.498940   x 
            x  C           76         0.444225   0.110710   0.498614   x 
            x  C           77         0.518255   0.258942   0.500513   x 
            x  C           78         0.444241   0.221783   0.499807   x 
            x  C           79         0.518632   0.370186   0.505689   x 
            x  C           80         0.443777   0.332800   0.505615   x 
            x  C           81         0.520425   0.482436   0.510208   x 
            x  C           82         0.444403   0.444414   0.528003   x 
            x  C           83         0.518668   0.592913   0.505718   x 
            x  C           84         0.443813   0.555417   0.505621   x 
            x  C           85         0.518368   0.703825   0.500539   x 
            x  C           86         0.444353   0.666929   0.499802   x 
            x  C           87         0.518532   0.815023   0.498953   x 
            x  C           88         0.444441   0.778047   0.498608   x 
            x  C           89         0.518575   0.926078   0.498813   x 
            x  C           90         0.444495   0.889152   0.498610   x 
            x  C           91         0.629555   0.036737   0.499188   x 
            x  C           92         0.555531  -0.000174   0.498954   x 
            x  C           93         0.629563   0.147889   0.499199   x 
            x  C           94         0.555443   0.110801   0.498954   x 
            x  C           95         0.629659   0.259144   0.499560   x 
            x  C           96         0.555352   0.222063   0.499556   x 
            x  C           97         0.629868   0.370553   0.500512   x 
            x  C           98         0.555277   0.333531   0.502236   x 
            x  C           99         0.630160   0.481851   0.501075   x 
            x  C          100         0.556014   0.445036   0.505615   x 
            x  C          101         0.630164   0.592777   0.501094   x 
            x  C          102         0.556025   0.555433   0.505635   x 
            x  C          103         0.629912   0.703818   0.500554   x 
            x  C          104         0.555336   0.666226   0.502276   x 
            x  C          105         0.629792   0.815065   0.499601   x 
            x  C          106         0.555509   0.777817   0.499587   x 
            x  C          107         0.629718   0.926059   0.499213   x 
            x  C          108         0.555680   0.889154   0.498963   x 
            x  C          109         0.740821   0.036774   0.499371   x 
            x  C          110         0.666704  -0.000222   0.499280   x 
            x  C          111         0.740851   0.147957   0.499369   x 
            x  C          112         0.666664   0.110884   0.499276   x 
            x  C          113         0.740918   0.259235   0.499199   x 
            x  C          114         0.666624   0.222173   0.499293   x 
            x  C          115         0.740965   0.370484   0.498939   x 
            x  C          116         0.666739   0.333445   0.499555   x 
            x  C          117         0.741176   0.481662   0.498714   x 
            x  C          118         0.667025   0.444565   0.499803   x 
            x  C          119         0.741389   0.592941   0.498695   x 
            x  C          120         0.667117   0.555794   0.500090   x 
            x  C          121         0.741150   0.703993   0.498729   x 
            x  C          122         0.667024   0.666932   0.499831   x 
            x  C          123         0.740980   0.814993   0.498965   x 
            x  C          124         0.666796   0.777805   0.499596   x 
            x  C          125         0.740954   0.926067   0.499215   x 
            x  C          126         0.666766   0.888949   0.499318   x 
            x  C          127         0.852069   0.036815   0.499185   x 
            x  C          128         0.777911  -0.000195   0.499278   x 
            x  C          129         0.852103   0.148006   0.499369   x 
            x  C          130         0.777932   0.110889   0.499409   x 
            x  C          131         0.852144   0.259269   0.499187   x 
            x  C          132         0.777933   0.222135   0.499275   x 
            x  C          133         0.852151   0.370450   0.498814   x 
            x  C          134         0.778019   0.333356   0.498954   x 
            x  C          135         0.852299   0.481694   0.498478   x 
            x  C          136         0.778115   0.444580   0.498616   x 
            x  C          137         0.852377   0.592908   0.498286   x 
            x  C          138         0.778283   0.555851   0.498413   x 
            x  C          139         0.852350   0.703991   0.498283   x 
            x  C          140         0.778262   0.666925   0.498416   x 
            x  C          141         0.852204   0.815054   0.498473   x 
            x  C          142         0.778062   0.778005   0.498627   x 
            x  C          143         0.852023   0.926045   0.498811   x 
            x  C          144         0.778001   0.889125   0.498967   x 
            x  C          145         0.963108   0.036932   0.498804   x 
            x  C          146         0.889080  -0.000119   0.498948   x 
            x  C          147         0.963141   0.148022   0.499205   x 
            x  C          148         0.889158   0.110959   0.499274   x 
            x  C          149         0.963158   0.259268   0.499206   x 
            x  C          150         0.889189   0.222160   0.499277   x 
            x  C          151         0.963139   0.370410   0.498815   x 
            x  C          152         0.889146   0.333336   0.498955   x 
            x  C          153         0.963172   0.481638   0.498607   x 
            x  C          154         0.889194   0.444571   0.498621   x 
            x  C          155         0.963233   0.592812   0.498561   x 
            x  C          156         0.889312   0.555768   0.498408   x 
            x  C          157         0.963293   0.703989   0.498570   x 
            x  C          158         0.889321   0.666946   0.498337   x 
            x  C          159         0.963195   0.815035   0.498545   x 
            x  C          160         0.889262   0.778061   0.498397   x 
            x  C          161         0.963011   0.925940   0.498586   x 
            x  C          162         0.889033   0.889018   0.498610   x 
            xxxxxxxxxxxxxxxxxxxxxxxxxxxxxxxxxxxxxxxxxxxxxxxxxxxxxxxxxxxx
 
            xxxxxxxxxxxxxxxxxxxxxxxxxxxxxxxxxxxxxxxxxxxxxxxxxxxxxxxxxxxx
            x                          Product                         x
            xxxxxxxxxxxxxxxxxxxxxxxxxxxxxxxxxxxxxxxxxxxxxxxxxxxxxxxxxxxx
            x  Element    Atom        Fractional coordinates of atoms  x
            x            Number           u          v          w      x
            x----------------------------------------------------------x
            x  H            1         0.400857   0.365647   0.649653   x 
            x  C            1         0.073939   0.036878   0.500002   x 
            x  C            2        -0.000022  -0.000050   0.500001   x 
            x  C            3         0.073789   0.147913   0.500001   x 
            x  C            4        -0.000188   0.110900   0.500000   x 
            x  C            5         0.073730   0.259014   0.500001   x 
            x  C            6        -0.000246   0.221978   0.500000   x 
            x  C            7         0.073742   0.370178   0.500002   x 
            x  C            8        -0.000229   0.333144   0.500001   x 
            x  C            9         0.073778   0.481375   0.500001   x 
            x  C           10        -0.000186   0.444341   0.500001   x 
            x  C           11         0.073829   0.592586   0.500001   x 
            x  C           12        -0.000136   0.555542   0.500001   x 
            x  C           13         0.073876   0.703801   0.500001   x 
            x  C           14        -0.000096   0.666738   0.500001   x 
            x  C           15         0.073906   0.814996   0.500001   x 
            x  C           16        -0.000079   0.777900   0.500001   x 
            x  C           17         0.073893   0.926029   0.500001   x 
            x  C           18        -0.000107   0.888989   0.500001   x 
            x  C           19         0.184957   0.036739   0.500000   x 
            x  C           20         0.110935  -0.000169   0.500001   x 
            x  C           21         0.184957   0.147912   0.500001   x 
            x  C           22         0.110865   0.110899   0.500003   x 
            x  C           23         0.184909   0.259048   0.500020   x 
            x  C           24         0.110784   0.221986   0.500007   x 
            x  C           25         0.184889   0.370192   0.500001   x 
            x  C           26         0.110755   0.333113   0.500003   x 
            x  C           27         0.184907   0.481384   0.500000   x 
            x  C           28         0.110772   0.444289   0.500001   x 
            x  C           29         0.184945   0.592600   0.500001   x 
            x  C           30         0.110811   0.555494   0.500001   x 
            x  C           31         0.184994   0.703820   0.500001   x 
            x  C           32         0.110862   0.666709   0.500001   x 
            x  C           33         0.185039   0.815019   0.500001   x 
            x  C           34         0.110904   0.777922   0.500001   x 
            x  C           35         0.185010   0.926015   0.500001   x 
            x  C           36         0.110929   0.889061   0.500001   x 
            x  C           37         0.296054   0.036698   0.500000   x 
            x  C           38         0.221993  -0.000250   0.500001   x 
            x  C           39         0.296107   0.147896   0.500022   x 
            x  C           40         0.221982   0.110814   0.500005   x 
            x  C           41         0.296136   0.259109   0.499920   x 
            x  C           42         0.222007   0.222021   0.499985   x 
            x  C           43         0.296133   0.370226   0.499921   x 
            x  C           44         0.221984   0.333164   0.499984   x 
            x  C           45         0.296147   0.481412   0.500022   x 
            x  C           46         0.221978   0.444333   0.500004   x 
            x  C           47         0.296163   0.592641   0.500000   x 
            x  C           48         0.221999   0.555537   0.500001   x 
            x  C           49         0.296208   0.703872   0.500001   x 
            x  C           50         0.222045   0.666756   0.500001   x 
            x  C           51         0.296250   0.815064   0.500001   x 
            x  C           52         0.222096   0.777968   0.500001   x 
            x  C           53         0.296206   0.926035   0.500001   x 
            x  C           54         0.222120   0.889088   0.500001   x 
            x  C           55         0.407217   0.036707   0.500002   x 
            x  C           56         0.333145  -0.000240   0.500001   x 
            x  C           57         0.407243   0.147854   0.500002   x 
            x  C           58         0.333110   0.110772   0.500004   x 
            x  C           59         0.407307   0.259110   0.499932   x 
            x  C           60         0.333170   0.222018   0.500010   x 
            x  C           61         0.407322   0.370274   0.500322   x 
            x  C           62         0.333175   0.333190   0.499962   x 
            x  C           63         0.407356   0.481444   0.499936   x 
            x  C           64         0.333206   0.444359   0.500013   x 
            x  C           65         0.407379   0.592678   0.500002   x 
            x  C           66         0.333221   0.555572   0.500004   x 
            x  C           67         0.407426   0.703916   0.500002   x 
            x  C           68         0.333264   0.666804   0.500001   x 
            x  C           69         0.407470   0.815116   0.500001   x 
            x  C           70         0.333314   0.778017   0.500001   x 
            x  C           71         0.407418   0.926083   0.500001   x 
            x  C           72         0.333330   0.889132   0.500001   x 
            x  C           73         0.518414   0.036745   0.500001   x 
            x  C           74         0.444336  -0.000202   0.500001   x 
            x  C           75         0.518434   0.147869   0.500001   x 
            x  C           76         0.444281   0.110777   0.500003   x 
            x  C           77         0.518472   0.259085   0.500016   x 
            x  C           78         0.444328   0.222001   0.499991   x 
            x  C           79         0.518475   0.370278   0.499931   x 
            x  C           80         0.444373   0.333206   0.499935   x 
            x  C           81         0.518502   0.481470   0.499935   x 
            x  C           82         0.444399   0.444406   0.499928   x 
            x  C           83         0.518570   0.592701   0.500015   x 
            x  C           84         0.444424   0.555593   0.499992   x 
            x  C           85         0.518629   0.703947   0.500001   x 
            x  C           86         0.444470   0.666834   0.500003   x 
            x  C           87         0.518676   0.815162   0.500001   x 
            x  C           88         0.444527   0.778065   0.500001   x 
            x  C           89         0.518625   0.926132   0.500001   x 
            x  C           90         0.444546   0.889183   0.500001   x 
            x  C           91         0.629630   0.036798   0.500001   x 
            x  C           92         0.555545  -0.000153   0.500001   x 
            x  C           93         0.629646   0.147908   0.500001   x 
            x  C           94         0.555491   0.110814   0.500000   x 
            x  C           95         0.629690   0.259118   0.500001   x 
            x  C           96         0.555528   0.222012   0.500005   x 
            x  C           97         0.629720   0.370329   0.500002   x 
            x  C           98         0.555558   0.333232   0.499989   x 
            x  C           99         0.629716   0.481510   0.500022   x 
            x  C          100         0.555577   0.444421   0.500021   x 
            x  C          101         0.629761   0.592716   0.500002   x 
            x  C          102         0.555614   0.555617   0.499990   x 
            x  C          103         0.629804   0.703949   0.500001   x 
            x  C          104         0.555660   0.666852   0.500005   x 
            x  C          105         0.629858   0.815180   0.500001   x 
            x  C          106         0.555723   0.778095   0.500000   x 
            x  C          107         0.629818   0.926175   0.500001   x 
            x  C          108         0.555746   0.889229   0.500001   x 
            x  C          109         0.740843   0.036842   0.500001   x 
            x  C          110         0.666759  -0.000103   0.500001   x 
            x  C          111         0.740866   0.147961   0.500001   x 
            x  C          112         0.666711   0.110864   0.500001   x 
            x  C          113         0.740915   0.259171   0.500001   x 
            x  C          114         0.666752   0.222056   0.500000   x 
            x  C          115         0.740958   0.370383   0.500002   x 
            x  C          116         0.666796   0.333276   0.500003   x 
            x  C          117         0.740984   0.481579   0.499999   x 
            x  C          118         0.666823   0.444477   0.500003   x 
            x  C          119         0.740993   0.592756   0.499999   x 
            x  C          120         0.666838   0.555661   0.500003   x 
            x  C          121         0.740983   0.703930   0.500002   x 
            x  C          122         0.666848   0.666856   0.500003   x 
            x  C          123         0.740999   0.815142   0.500001   x 
            x  C          124         0.666883   0.778089   0.500000   x 
            x  C          125         0.740972   0.926187   0.500001   x 
            x  C          126         0.666917   0.889252   0.500001   x 
            x  C          127         0.852033   0.036869   0.500001   x 
            x  C          128         0.777958  -0.000076   0.500001   x 
            x  C          129         0.852060   0.148006   0.500001   x 
            x  C          130         0.777926   0.110912   0.500001   x 
            x  C          131         0.852103   0.259218   0.500001   x 
            x  C          132         0.777969   0.222108   0.500001   x 
            x  C          133         0.852150   0.370433   0.500000   x 
            x  C          134         0.778019   0.333325   0.500001   x 
            x  C          135         0.852196   0.481634   0.500001   x 
            x  C          136         0.778062   0.444534   0.500001   x 
            x  C          137         0.852217   0.592814   0.500001   x 
            x  C          138         0.778089   0.555724   0.500001   x 
            x  C          139         0.852199   0.703951   0.500001   x 
            x  C          140         0.778074   0.666887   0.500001   x 
            x  C          141         0.852111   0.815041   0.500001   x 
            x  C          142         0.778025   0.778041   0.500001   x 
            x  C          143         0.852034   0.926106   0.500001   x 
            x  C          144         0.778017   0.889209   0.500001   x 
            x  C          145         0.963072   0.036943   0.500001   x 
            x  C          146         0.889074  -0.000095   0.500001   x 
            x  C          147         0.963043   0.148029   0.500001   x 
            x  C          148         0.889059   0.110936   0.500001   x 
            x  C          149         0.963058   0.259190   0.500001   x 
            x  C          150         0.889090   0.222128   0.500001   x 
            x  C          151         0.963101   0.370383   0.500001   x 
            x  C          152         0.889136   0.333341   0.500001   x 
            x  C          153         0.963151   0.481587   0.500001   x 
            x  C          154         0.889187   0.444551   0.500001   x 
            x  C          155         0.963194   0.592783   0.500001   x 
            x  C          156         0.889229   0.555746   0.500001   x 
            x  C          157         0.963214   0.703951   0.500001   x 
            x  C          158         0.889240   0.666914   0.500001   x 
            x  C          159         0.963157   0.815033   0.500001   x 
            x  C          160         0.889181   0.778019   0.500001   x 
            x  C          161         0.962990   0.925983   0.500001   x 
            x  C          162         0.889032   0.889061   0.500001   x 
            xxxxxxxxxxxxxxxxxxxxxxxxxxxxxxxxxxxxxxxxxxxxxxxxxxxxxxxxxxxx
 
 
                         No user defined ionic velocities
 
                           -------------------------------
                                   Details of Species
                           -------------------------------
 
                               Mass of species in AMU
                                    H    1.0079400
                                    C   12.0107000
 
                          Electric Quadrupole Moment (Barn)
                                    H    0.0028600 Isotope  2
                                    C    0.0332700 Isotope 11
 
                          Files used for pseudopotentials:
                                    H 1|0.8|14|16|19|10N(qc=8)
                                    C 1|1.2|17|20|23|20N:21L(qc=8)
 
                           -------------------------------
                              k-Points For BZ Sampling
                           -------------------------------
                       MP grid size for SCF calculation is  1  1  1
                            with an offset of   0.000  0.000  0.000
                       Number of kpoints used =   1
 
                           -------------------------------
                               Symmetry and Constraints
                           -------------------------------
 
                      Maximum deviation from symmetry =  0.00000         ANG
 
                      Number of symmetry operations   = 1
         There are no ionic constraints specified or generated for this cell
                      Point group of crystal =     1: C1, 1, 1
                      Space group of crystal =     1: P1, P 1
 
             Set iprint > 1 for details on symmetry rotations/translations
 
                         Centre of mass is NOT constrained
 
                         Number of cell constraints= 6
                         Cell constraints are:  0 0 0 0 0 0
 
                         External pressure/stress (GPa)
                          0.00000   0.00000   0.00000
                                    0.00000   0.00000
                                              0.00000
 
                                --------------------
                                  DFT-D parameters
                                --------------------
 
                          Dispersion-correction scheme : MBD*      
                        Parameter sR :   0.830000 (default)
 
        xxxxxxxxxxxxxxxxxxxxxxxxxxxxxxxxxxxxxxxxxxxxxxxxxxxxxxxxxxxxxxxxxxxx
        x              Atomic DFT-D parameters                             x
        x  Species      C6            alpha        R0                      x
        x               eV A^6        A^3          A                       x
        x------------------------------------------------------------------x
        x  H             3.8839       0.6668       1.6404   (default)      x
        x  C            27.8448       1.7782       1.8997   (default)      x
        xxxxxxxxxxxxxxxxxxxxxxxxxxxxxxxxxxxxxxxxxxxxxxxxxxxxxxxxxxxxxxxxxxxx
 
  
+---------------- MEMORY AND SCRATCH DISK ESTIMATES PER PROCESS --------------+
|                                                     Memory          Disk    |
| Baseline code, static data and system overhead      788.0 MB         0.0 MB |
| BLAS internal memory storage                          0.0 MB         0.0 MB |
| Model and support data                               49.5 MB         0.0 MB |
| Electronic energy minimisation requirements          98.7 MB         0.0 MB |
| Force calculation requirements                        8.0 MB         0.0 MB |
|                                               ----------------------------- |
| Approx. total storage required per process          936.3 MB         0.0 MB |
|                                                                             |
| Requirements will fluctuate during execution and may exceed these estimates |
+-----------------------------------------------------------------------------+
Calculating approximate eigenstates for fixed initial Hamiltonian
Cut-off for approx. calculation is  282.421 eV
Improving approx. states at cut-off of  462.594 eV
Resetting cut-off to  800.000 eV
Calculating total energy with cut-off of  800.000 eV.
------------------------------------------------------------------------ <-- SCF
SCF loop      Energy           Fermi           Energy gain       Timer   <-- SCF
                               energy          per atom          (sec)   <-- SCF
------------------------------------------------------------------------ <-- SCF
Initial  -2.39188203E+004  0.00000000E+000                        47.55  <-- SCF
      1  -2.62667344E+004 -5.69582978E+000   1.44043815E+001      77.63  <-- SCF
      2  -2.62672624E+004 -5.69681817E+000   3.23896464E-003     108.83  <-- SCF
      3  -2.62025342E+004 -4.39402104E+000  -3.97105354E-001     143.89  <-- SCF
      4  -2.61985858E+004 -3.89220910E+000  -2.42235579E-002     179.47  <-- SCF
      5  -2.61973418E+004 -3.58585658E+000  -7.63160581E-003     216.70  <-- SCF
      6  -2.61970441E+004 -3.43175158E+000  -1.82681287E-003     251.33  <-- SCF
      7  -2.61966866E+004 -3.15509604E+000  -2.19279927E-003     284.86  <-- SCF
      8  -2.61964615E+004 -3.03217014E+000  -1.38142875E-003     317.71  <-- SCF
      9  -2.61964468E+004 -2.90054988E+000  -8.96933189E-005     350.77  <-- SCF
     10  -2.61965037E+004 -2.79807417E+000   3.48605491E-004     383.44  <-- SCF
     11  -2.61964139E+004 -2.78808881E+000  -5.50563702E-004     414.78  <-- SCF
     12  -2.61965577E+004 -2.77887223E+000   8.81835765E-004     446.42  <-- SCF
     13  -2.61964959E+004 -2.75242128E+000  -3.78866545E-004     477.56  <-- SCF
     14  -2.61965468E+004 -2.70517849E+000   3.12260816E-004     510.20  <-- SCF
     15  -2.61965432E+004 -2.63804387E+000  -2.18347658E-005     542.21  <-- SCF
     16  -2.61966064E+004 -2.55679524E+000   3.87315979E-004     573.59  <-- SCF
     17  -2.61966259E+004 -2.48000117E+000   1.19865980E-004     604.68  <-- SCF
     18  -2.61966047E+004 -2.43893818E+000  -1.29905860E-004     636.76  <-- SCF
     19  -2.61964975E+004 -2.41637970E+000  -6.58116492E-004     665.46  <-- SCF
     20  -2.61965232E+004 -2.41114452E+000   1.57865743E-004     693.38  <-- SCF
     21  -2.61965692E+004 -2.40860265E+000   2.82045930E-004     721.04  <-- SCF
     22  -2.61966549E+004 -2.40590398E+000   5.25937523E-004     748.43  <-- SCF
     23  -2.61966664E+004 -2.40483385E+000   7.03985298E-005     775.21  <-- SCF
     24  -2.61966708E+004 -2.40447607E+000   2.71509557E-005     801.61  <-- SCF
     25  -2.61966757E+004 -2.40436964E+000   2.99559990E-005     828.09  <-- SCF
     26  -2.61966768E+004 -2.40428491E+000   6.75066135E-006     855.13  <-- SCF
     27  -2.61966771E+004 -2.40416996E+000   1.88447300E-006     881.94  <-- SCF
     28  -2.61966772E+004 -2.40404342E+000   6.34818736E-007     908.27  <-- SCF
     29  -2.61966773E+004 -2.40389050E+000   5.56473989E-007     934.87  <-- SCF
     30  -2.61966773E+004 -2.40371323E+000   3.33064516E-007     961.42  <-- SCF
------------------------------------------------------------------------ <-- SCF
 
Integrated Spin Density     =    0.963631E-04 hbar/2                        
Integrated |Spin Density|   =    0.250039E-02 hbar/2                        
 
Final energy, E             =  -26196.33757583     eV
Final free energy (E-TS)    =  -26196.67734383     eV
(energies not corrected for finite basis set)
 
NB est. 0K energy (E-0.5TS)      =  -26196.50745983     eV
 
(SEDC) Total Energy Correction : -0.134177E+02 eV

Dispersion corrected final energy*, Ecor          =  -26209.75531267     eV
Dispersion corrected final free energy* (Ecor-TS) =  -26210.09508067     eV
NB dispersion corrected est. 0K energy* (Ecor-0.5TS) =  -26209.92519667     eV

Writing analysis data to 9x9.castep_bin

Writing model to 9x9.check
++++++++++++++++++++++++++++++++++++++++++++++++++++++++++++++++++++++++++++++++
+++++++++++++++++++++++ Starting Transition State Search +++++++++++++++++++++++
++++++++++++++++++++++++++++++++++++++++++++++++++++++++++++++++++++++++++++++++
 
++++++++++++++++++++++++++++++++++++++++++++++++++++++++++++++++++++++++++++++++
+++++++++++++++++++++++ Linear synchronous transit method ++++++++++++++++++++++
++++++++++++++++++++++++++++++++++++++++++++++++++++++++++++++++++++++++++++++++
 
 +++++++++++++++++++++++++++++++++++++++++++++++++++++++
 Difference vector: Fractional components 
 +++++++++++++++++++++++++++++++++++++++++++++++++++++++
   -0.043545417   -0.078759358    0.065553744
    0.000039311    0.000122715    0.001541501
   -0.000020778    0.000025141    0.001398209
   -0.000124706    0.000003610    0.001049566
   -0.000060712    0.000003726    0.001046330
   -0.000093287   -0.000046855    0.000412827
   -0.000281893   -0.000130688    0.000695606
   -0.000118634   -0.000123947    0.001052006
   -0.000062493   -0.000046553    0.001042868
    0.000043314   -0.000078181    0.001531999
   -0.000018342   -0.000029766    0.001381962
    0.000034522   -0.000038881    0.001448099
    0.000010208   -0.000000789    0.001408742
    0.000003777   -0.000033400    0.001235730
   -0.000023161   -0.000021358    0.001338454
    0.000000225    0.000022745    0.001240841
   -0.000024002   -0.000001890    0.001346588
    0.000030152    0.000063748    0.001461921
    0.000005647    0.000013379    0.001429543
    0.000070414    0.000185221    0.001727041
    0.000067659    0.000104121    0.001615405
    0.000098847    0.000203358    0.001279773
   -0.000008589    0.000062909    0.001389221
   -0.000099889    0.000127275   -0.000529057
   -0.000253667   -0.000062344    0.000422017
   -0.000099785   -0.000252654   -0.000539397
   -0.000253320   -0.000192961    0.000421839
    0.000104312   -0.000108874    0.001295240
   -0.000004371   -0.000070957    0.001388284
    0.000081067   -0.000117595    0.001739392
    0.000073989   -0.000040400    0.001607855
    0.000073710   -0.000055338    0.001443881
    0.000032353   -0.000032634    0.001345909
    0.000059247    0.000019791    0.001239756
    0.000018189    0.000001120    0.001188337
    0.000065416    0.000108895    0.001438770
    0.000021989    0.000046672    0.001352032
    0.000121554    0.000189400    0.001722028
    0.000051914    0.000100684    0.001675081
    0.000222329    0.000452890    0.001329194
    0.000070184    0.000226474    0.001596391
    0.000087206    0.000441072   -0.001173457
    0.000109902    0.000207490    0.000156630
    0.000231239    0.000074647   -0.005797491
   -0.000603747   -0.000318962   -0.002291457
    0.000098039   -0.000367115   -0.001048706
    0.000105119   -0.000113948    0.000195569
    0.000222037   -0.000215189    0.001340866
    0.000074369   -0.000156702    0.001616506
    0.000136589   -0.000062950    0.001745550
    0.000069345   -0.000055313    0.001688192
    0.000057893   -0.000017890    0.001459642
    0.000052039   -0.000013462    0.001350712
    0.000052562    0.000056667    0.001451078
    0.000047081    0.000039830    0.001346246
    0.000080017    0.000124473    0.001531995
    0.000041415    0.000102205    0.001604168
    0.000095594    0.000209283    0.001286814
    0.000146804    0.000225143    0.001594907
    0.000341494    0.000450822   -0.001146099
    0.000145049    0.000312043   -0.000082558
    0.000938454    0.001880695   -0.009884832
   -0.000210443    0.000394777   -0.005672925
    0.000959663   -0.000976129   -0.010269828
   -0.000184503   -0.000639198   -0.005611610
    0.000355057   -0.000077618   -0.001062704
    0.000151647   -0.000159225   -0.000057489
    0.000121509   -0.000084868    0.001303956
    0.000168002   -0.000063436    0.001620891
    0.000097211   -0.000032259    0.001540853
    0.000059321   -0.000063874    0.001617929
    0.000078667    0.000039353    0.001406450
    0.000017950    0.000002240    0.001421533
    0.000037463    0.000013026    0.001190327
    0.000040902    0.000020637    0.001387902
    0.000119222    0.000021001    0.001060473
    0.000055953    0.000067483    0.001389128
    0.000217255    0.000143683   -0.000497242
    0.000086641    0.000218367    0.000183713
   -0.000156521    0.000091730   -0.005757885
    0.000595937    0.000406309   -0.005680091
   -0.001923224   -0.000965514   -0.010273656
   -0.000004070   -0.000008115   -0.028075287
   -0.000097710   -0.000212529   -0.005702719
    0.000611039    0.000176411   -0.005628845
    0.000260620    0.000122396   -0.000538596
    0.000117097   -0.000094938    0.000200375
    0.000144322    0.000139051    0.001047915
    0.000086241    0.000018355    0.001392879
    0.000049570    0.000054757    0.001188158
    0.000051588    0.000031180    0.001390607
    0.000075047    0.000060800    0.000812259
    0.000013619    0.000021207    0.001046357
    0.000083109    0.000018527    0.000801514
    0.000047639    0.000013697    0.001046644
    0.000030683   -0.000026360    0.000440422
    0.000175536   -0.000050551    0.000448747
   -0.000147216   -0.000223494   -0.000509694
    0.000281404   -0.000298988   -0.002247306
   -0.000443825   -0.000341309   -0.001053738
   -0.000437119   -0.000615022   -0.005594124
   -0.000402917   -0.000061960   -0.001091654
   -0.000411206    0.000184712   -0.005645038
   -0.000107337    0.000131179   -0.000553840
    0.000323952    0.000626780   -0.002271310
    0.000065508    0.000115378    0.000399943
    0.000214271    0.000277613    0.000413754
    0.000100235    0.000115787    0.000787161
    0.000066399    0.000075573    0.001037631
    0.000021681    0.000067944    0.000629351
    0.000054165    0.000118964    0.000720463
    0.000014265    0.000004219    0.000631444
    0.000046540   -0.000019917    0.000724715
   -0.000002407   -0.000064513    0.000801893
    0.000128437   -0.000116860    0.000707495
   -0.000006675   -0.000100738    0.001062376
    0.000057202   -0.000169025    0.000448360
   -0.000191885   -0.000082913    0.001284867
   -0.000201780   -0.000087705    0.000200283
   -0.000395905   -0.000185331    0.001304672
   -0.000279252   -0.000132534   -0.000086851
   -0.000167737   -0.000063396    0.001272293
   -0.000175775   -0.000075603    0.000171752
    0.000018376    0.000148391    0.001035465
    0.000087032    0.000283881    0.000404080
    0.000018461    0.000120125    0.000785900
    0.000151257    0.000302438    0.000682521
   -0.000035353    0.000053829    0.000816043
    0.000047852    0.000118717    0.000722294
   -0.000043724    0.000000323    0.000631583
   -0.000005834    0.000023077    0.000591106
   -0.000041477   -0.000050825    0.000813998
    0.000036037   -0.000026703    0.000725467
   -0.000000961   -0.000016938    0.001186426
    0.000000417   -0.000030986    0.001046784
   -0.000103623   -0.000059733    0.001522375
   -0.000052931   -0.000045242    0.001384357
   -0.000160290   -0.000094045    0.001714734
   -0.000194723   -0.000126732    0.001588384
   -0.000151658   -0.000040069    0.001717205
   -0.000188308   -0.000038682    0.001584641
   -0.000092877   -0.000012577    0.001527372
   -0.000036655    0.000036070    0.001373533
    0.000011425    0.000061118    0.001190033
    0.000016838    0.000084134    0.001033414
   -0.000035586    0.000011258    0.001196329
   -0.000005800    0.000024311    0.001053104
   -0.000098391    0.000006388    0.000796144
   -0.000098913   -0.000022716    0.000726580
   -0.000100264   -0.000078630    0.000794646
   -0.000099077   -0.000031667    0.000724203
   -0.000037841   -0.000026377    0.001185588
   -0.000010201    0.000004761    0.001046002
   -0.000021110   -0.000050425    0.001393854
   -0.000006875   -0.000019153    0.001379604
   -0.000038518   -0.000028774    0.001439820
   -0.000082947   -0.000022347    0.001592948
   -0.000078926   -0.000038478    0.001430805
   -0.000080534   -0.000031867    0.001663763
   -0.000038147   -0.000001988    0.001455463
   -0.000081369   -0.000042040    0.001603234
   -0.000020927    0.000043457    0.001414241
   -0.000001057    0.000042311    0.001390577
 +++++++++++++++++++++++++++++++++++++++++++++++++++++++
 
 +++++++++++++++++++++++++++++++++++++++++++++++++++++++
 Periodic cell setup complete
 +++++++++++++++++++++++++++++++++++++++++++++++++++++++
 
------------------------------------------------------------------------ <-- SCF
SCF loop      Energy           Fermi           Energy gain       Timer   <-- SCF
                               energy          per atom          (sec)   <-- SCF
------------------------------------------------------------------------ <-- SCF
Initial  -2.61963295E+004  0.00000000E+000                       988.23  <-- SCF
      1  -2.61966774E+004 -2.40359312E+000   2.13434772E-003    1012.91  <-- SCF
      2  -2.61966774E+004 -2.40359312E+000   5.31601692E-011    1038.45  <-- SCF
      3  -2.61966774E+004 -2.40358398E+000   5.21453622E-008    1063.66  <-- SCF
      4  -2.61966774E+004 -2.40357752E+000   3.85026332E-008    1089.33  <-- SCF
      5  -2.61966774E+004 -2.40355274E+000   4.28167489E-008    1114.96  <-- SCF
------------------------------------------------------------------------ <-- SCF
 
Integrated Spin Density     =   -0.194660E-05 hbar/2                        
Integrated |Spin Density|   =    0.726948E-03 hbar/2                        
 
Final energy, E             =  -26196.33763415     eV
Final free energy (E-TS)    =  -26196.67740217     eV
(energies not corrected for finite basis set)
 
NB est. 0K energy (E-0.5TS)      =  -26196.50751816     eV
 

Dispersion corrected final energy*, Ecor          =  -26209.75537098     eV
Dispersion corrected final free energy* (Ecor-TS) =  -26210.09513900     eV
NB dispersion corrected est. 0K energy* (Ecor-0.5TS) =  -26209.92525499     eV
 +++++++++++++++++++++++++++++++++++++++++++++++++++++++
 Reactant                      
 Path coordinate:                         0.00000
 Energy:                             -26210.09514 eV                            
 +++++++++++++++++++++++++++++++++++++++++++++++++++++++
 
            ++++++++++++++++++++++++++++++++++++++++++++++++++++++++++++++++++++
                             Coordinates: Fractional components
            ++++++++++++++++++++++++++++++++++++++++++++++++++++++++++++++++++++
            +  Element    Atom                                                 +
            +            Number           x          y          z              +
            ++++++++++++++++++++++++++++++++++++++++++++++++++++++++++++++++++++
            +H             1          0.444402   0.444407   0.584099           +
            +C             1          0.073899   0.036756   0.498460           +
            +C             2         -0.000001  -0.000075   0.498603           +
            +C             3          0.073913   0.147909   0.498951           +
            +C             4         -0.000127   0.110896   0.498954           +
            +C             5          0.073824   0.259061   0.499588           +
            +C             6          0.000036   0.222108   0.499305           +
            +C             7          0.073861   0.370302   0.498950           +
            +C             8         -0.000166   0.333190   0.498958           +
            +C             9          0.073735   0.481453   0.498469           +
            +C            10         -0.000168   0.444371   0.498619           +
            +C            11          0.073794   0.592625   0.498553           +
            +C            12         -0.000146   0.555543   0.498592           +
            +C            13          0.073872   0.703835   0.498765           +
            +C            14         -0.000072   0.666759   0.498662           +
            +C            15          0.073905   0.814973   0.498760           +
            +C            16         -0.000055   0.777902   0.498654           +
            +C            17          0.073863   0.925965   0.498539           +
            +C            18         -0.000112   0.888976   0.498571           +
            +C            19          0.184886   0.036554   0.498273           +
            +C            20          0.110867  -0.000273   0.498385           +
            +C            21          0.184859   0.147709   0.498721           +
            +C            22          0.110874   0.110837   0.498614           +
            +C            23          0.185009   0.258921   0.500549           +
            +C            24          0.111037   0.222048   0.499585           +
            +C            25          0.184988   0.370444   0.500540           +
            +C            26          0.111009   0.333306   0.499581           +
            +C            27          0.184802   0.481493   0.498704           +
            +C            28          0.110776   0.444360   0.498612           +
            +C            29          0.184864   0.592717   0.498262           +
            +C            30          0.110737   0.555534   0.498393           +
            +C            31          0.184921   0.703875   0.498557           +
            +C            32          0.110830   0.666742   0.498655           +
            +C            33          0.184980   0.815000   0.498761           +
            +C            34          0.110886   0.777921   0.498812           +
            +C            35          0.184945   0.925906   0.498562           +
            +C            36          0.110907   0.889015   0.498649           +
            +C            37          0.295933   0.036509   0.498278           +
            +C            38          0.221941  -0.000350   0.498326           +
            +C            39          0.295884   0.147443   0.498693           +
            +C            40          0.221912   0.110588   0.498408           +
            +C            41          0.296049   0.258668   0.501094           +
            +C            42          0.221897   0.221814   0.499828           +
            +C            43          0.295902   0.370152   0.505718           +
            +C            44          0.222587   0.333483   0.502276           +
            +C            45          0.296049   0.481779   0.501071           +
            +C            46          0.221873   0.444447   0.499809           +
            +C            47          0.295941   0.592856   0.498659           +
            +C            48          0.221925   0.555694   0.498384           +
            +C            49          0.296072   0.703935   0.498255           +
            +C            50          0.221976   0.666811   0.498313           +
            +C            51          0.296192   0.815082   0.498541           +
            +C            52          0.222044   0.777981   0.498650           +
            +C            53          0.296153   0.925979   0.498550           +
            +C            54          0.222073   0.889048   0.498655           +
            +C            55          0.407137   0.036583   0.498470           +
            +C            56          0.333103  -0.000343   0.498396           +
            +C            57          0.407147   0.147644   0.498715           +
            +C            58          0.332963   0.110547   0.498409           +
            +C            59          0.406965   0.258659   0.501078           +
            +C            60          0.333025   0.221706   0.500093           +
            +C            61          0.406384   0.368394   0.510207           +
            +C            62          0.333385   0.332795   0.505635           +
            +C            63          0.406396   0.482420   0.510206           +
            +C            64          0.333391   0.444998   0.505625           +
            +C            65          0.407024   0.592756   0.501065           +
            +C            66          0.333069   0.555732   0.500061           +
            +C            67          0.407305   0.704001   0.498698           +
            +C            68          0.333096   0.666867   0.498380           +
            +C            69          0.407373   0.815148   0.498460           +
            +C            70          0.333255   0.778081   0.498383           +
            +C            71          0.407339   0.926044   0.498594           +
            +C            72          0.333312   0.889130   0.498579           +
            +C            73          0.518377   0.036732   0.498810           +
            +C            74          0.444295  -0.000223   0.498613           +
            +C            75          0.518315   0.147848   0.498940           +
            +C            76          0.444225   0.110710   0.498614           +
            +C            77          0.518255   0.258942   0.500513           +
            +C            78          0.444241   0.221783   0.499807           +
            +C            79          0.518632   0.370186   0.505689           +
            +C            80          0.443777   0.332800   0.505615           +
            +C            81          0.520425   0.482436   0.510208           +
            +C            82          0.444403   0.444414   0.528003           +
            +C            83          0.518668   0.592913   0.505718           +
            +C            84          0.443813   0.555417   0.505621           +
            +C            85          0.518368   0.703825   0.500539           +
            +C            86          0.444353   0.666929   0.499802           +
            +C            87          0.518532   0.815023   0.498953           +
            +C            88          0.444441   0.778047   0.498608           +
            +C            89          0.518575   0.926078   0.498813           +
            +C            90          0.444495   0.889152   0.498610           +
            +C            91          0.629555   0.036737   0.499188           +
            +C            92          0.555531  -0.000174   0.498954           +
            +C            93          0.629563   0.147889   0.499199           +
            +C            94          0.555443   0.110801   0.498954           +
            +C            95          0.629659   0.259144   0.499560           +
            +C            96          0.555352   0.222063   0.499556           +
            +C            97          0.629868   0.370553   0.500512           +
            +C            98          0.555277   0.333531   0.502236           +
            +C            99          0.630160   0.481851   0.501075           +
            +C           100          0.556014   0.445036   0.505615           +
            +C           101          0.630164   0.592777   0.501094           +
            +C           102          0.556025   0.555433   0.505635           +
            +C           103          0.629912   0.703818   0.500554           +
            +C           104          0.555336   0.666226   0.502276           +
            +C           105          0.629792   0.815065   0.499601           +
            +C           106          0.555509   0.777817   0.499587           +
            +C           107          0.629718   0.926059   0.499213           +
            +C           108          0.555680   0.889154   0.498963           +
            +C           109          0.740821   0.036774   0.499371           +
            +C           110          0.666704  -0.000222   0.499280           +
            +C           111          0.740851   0.147957   0.499369           +
            +C           112          0.666664   0.110884   0.499276           +
            +C           113          0.740918   0.259235   0.499199           +
            +C           114          0.666624   0.222173   0.499293           +
            +C           115          0.740965   0.370484   0.498939           +
            +C           116          0.666739   0.333445   0.499555           +
            +C           117          0.741176   0.481662   0.498714           +
            +C           118          0.667025   0.444565   0.499803           +
            +C           119          0.741389   0.592941   0.498695           +
            +C           120          0.667117   0.555794   0.500090           +
            +C           121          0.741150   0.703993   0.498729           +
            +C           122          0.667024   0.666932   0.499831           +
            +C           123          0.740980   0.814993   0.498965           +
            +C           124          0.666796   0.777805   0.499596           +
            +C           125          0.740954   0.926067   0.499215           +
            +C           126          0.666766   0.888949   0.499318           +
            +C           127          0.852069   0.036815   0.499185           +
            +C           128          0.777911  -0.000195   0.499278           +
            +C           129          0.852103   0.148006   0.499369           +
            +C           130          0.777932   0.110889   0.499409           +
            +C           131          0.852144   0.259269   0.499187           +
            +C           132          0.777933   0.222135   0.499275           +
            +C           133          0.852151   0.370450   0.498814           +
            +C           134          0.778019   0.333356   0.498954           +
            +C           135          0.852299   0.481694   0.498478           +
            +C           136          0.778115   0.444580   0.498616           +
            +C           137          0.852377   0.592908   0.498286           +
            +C           138          0.778283   0.555851   0.498413           +
            +C           139          0.852350   0.703991   0.498283           +
            +C           140          0.778262   0.666925   0.498416           +
            +C           141          0.852204   0.815054   0.498473           +
            +C           142          0.778062   0.778005   0.498627           +
            +C           143          0.852023   0.926045   0.498811           +
            +C           144          0.778001   0.889125   0.498967           +
            +C           145          0.963108   0.036932   0.498804           +
            +C           146          0.889080  -0.000119   0.498948           +
            +C           147          0.963141   0.148022   0.499205           +
            +C           148          0.889158   0.110959   0.499274           +
            +C           149          0.963158   0.259268   0.499206           +
            +C           150          0.889189   0.222160   0.499277           +
            +C           151          0.963139   0.370410   0.498815           +
            +C           152          0.889146   0.333336   0.498955           +
            +C           153          0.963172   0.481638   0.498607           +
            +C           154          0.889194   0.444571   0.498621           +
            +C           155          0.963233   0.592812   0.498561           +
            +C           156          0.889312   0.555768   0.498408           +
            +C           157          0.963293   0.703989   0.498570           +
            +C           158          0.889321   0.666946   0.498337           +
            +C           159          0.963195   0.815035   0.498545           +
            +C           160          0.889262   0.778061   0.498397           +
            +C           161          0.963011   0.925940   0.498586           +
            +C           162          0.889033   0.889018   0.498610           +
            ++++++++++++++++++++++++++++++++++++++++++++++++++++++++++++++++++++
                           Forces: Cartesian components: eV/A                          
            ++++++++++++++++++++++++++++++++++++++++++++++++++++++++++++++++++++
            +  Element    Atom                                                 +
            +            Number           x          y          z              +
            ++++++++++++++++++++++++++++++++++++++++++++++++++++++++++++++++++++
            +H             1         -0.000046   0.000305  -0.008515           +
            +C             1         -0.002688  -0.000522   0.000530           +
            +C             2         -0.000816  -0.002223  -0.000338           +
            +C             3         -0.000826  -0.002731   0.000246           +
            +C             4         -0.000031   0.002053  -0.001161           +
            +C             5         -0.000299  -0.000232  -0.004832           +
            +C             6          0.000211   0.000414   0.002039           +
            +C             7         -0.002661   0.000722   0.000495           +
            +C             8          0.001499  -0.001106  -0.001214           +
            +C             9         -0.000802  -0.001751   0.000902           +
            +C            10         -0.002675   0.000393  -0.000455           +
            +C            11         -0.000194   0.001568  -0.000856           +
            +C            12         -0.000409  -0.001498  -0.002253           +
            +C            13          0.000392  -0.001735  -0.000920           +
            +C            14         -0.003237   0.001289  -0.002762           +
            +C            15         -0.001721   0.001103  -0.001081           +
            +C            16         -0.000356  -0.004003  -0.002802           +
            +C            17          0.000514  -0.001091  -0.001043           +
            +C            18         -0.001188   0.000220  -0.002155           +
            +C            19          0.000245  -0.002826  -0.002595           +
            +C            20          0.001010  -0.000408  -0.000725           +
            +C            21          0.000364   0.002139  -0.000845           +
            +C            22         -0.000746   0.002267   0.003259           +
            +C            23          0.000590   0.000492   0.002742           +
            +C            24         -0.001189   0.001923   0.001730           +
            +C            25          0.001294  -0.000066   0.002722           +
            +C            26          0.000726  -0.001992   0.001690           +
            +C            27          0.002350   0.000058  -0.000688           +
            +C            28          0.001407  -0.001524   0.002813           +
            +C            29         -0.001572   0.001780  -0.002405           +
            +C            30         -0.000589   0.000735  -0.001389           +
            +C            31          0.000211   0.000130  -0.002420           +
            +C            32          0.002934   0.001431  -0.002750           +
            +C            33          0.001798   0.000670  -0.001030           +
            +C            34         -0.000137  -0.000174  -0.002340           +
            +C            35         -0.000400  -0.000494  -0.002773           +
            +C            36          0.003074   0.002184  -0.002607           +
            +C            37         -0.000922  -0.002626  -0.002414           +
            +C            38          0.000352  -0.005176   0.000596           +
            +C            39          0.000050   0.004267   0.002779           +
            +C            40         -0.001712   0.002891   0.000528           +
            +C            41         -0.000882  -0.001497   0.001912           +
            +C            42          0.002753  -0.000119   0.002246           +
            +C            43          0.003471   0.002092   0.001646           +
            +C            44          0.001020   0.000332  -0.000687           +
            +C            45         -0.001957  -0.000362   0.001687           +
            +C            46          0.001070   0.002321   0.002482           +
            +C            47          0.003457  -0.001824   0.002767           +
            +C            48          0.001137  -0.003080   0.000452           +
            +C            49         -0.002218   0.000481  -0.002127           +
            +C            50         -0.004645   0.002829   0.000314           +
            +C            51         -0.001957  -0.000961  -0.000499           +
            +C            52          0.000379  -0.003522  -0.003038           +
            +C            53         -0.001403  -0.001133  -0.000905           +
            +C            54         -0.002393   0.002264  -0.002718           +
            +C            55          0.001978   0.000558   0.000785           +
            +C            56         -0.000718  -0.000778  -0.001014           +
            +C            57         -0.000376   0.003184  -0.000492           +
            +C            58          0.002069   0.002255   0.000277           +
            +C            59          0.001390  -0.001294   0.001806           +
            +C            60          0.000021  -0.001730  -0.002437           +
            +C            61          0.000328   0.002733   0.006231           +
            +C            62         -0.002979   0.002937   0.003547           +
            +C            63          0.002171  -0.001203   0.006046           +
            +C            64          0.001151  -0.004263   0.003335           +
            +C            65         -0.000389   0.002486   0.001510           +
            +C            66         -0.000973   0.000340  -0.001916           +
            +C            67          0.001542  -0.001891  -0.000426           +
            +C            68          0.003103   0.000706   0.000274           +
            +C            69          0.001420   0.001019   0.001019           +
            +C            70         -0.000957   0.000104  -0.001536           +
            +C            71          0.000482  -0.000247  -0.003035           +
            +C            72          0.001790   0.001255  -0.002409           +
            +C            73         -0.001356  -0.000813   0.000682           +
            +C            74          0.000647  -0.002876  -0.000622           +
            +C            75          0.001079  -0.001827   0.000736           +
            +C            76          0.000279   0.001126   0.002879           +
            +C            77         -0.000210   0.000768   0.002666           +
            +C            78         -0.003391  -0.000740   0.002234           +
            +C            79         -0.002939   0.001661   0.001564           +
            +C            80          0.002398   0.002936   0.003555           +
            +C            81         -0.001997  -0.001474   0.006091           +
            +C            82          0.000040  -0.000095   0.014371           +
            +C            83          0.000003  -0.003425   0.001333           +
            +C            84          0.004104   0.000387   0.003611           +
            +C            85          0.000378  -0.000683   0.002616           +
            +C            86         -0.001917  -0.002320   0.002664           +
            +C            87         -0.001378   0.001407   0.000429           +
            +C            88          0.001869  -0.000218   0.002716           +
            +C            89         -0.001571  -0.000798   0.000443           +
            +C            90         -0.002003   0.002385  -0.000628           +
            +C            91          0.000683   0.000547  -0.000441           +
            +C            92          0.000846   0.000670  -0.002328           +
            +C            93          0.002336   0.001691  -0.001805           +
            +C            94         -0.000181   0.000999  -0.001949           +
[...]
             C 37  -- C 54                  -0.10         0.00          2.84000
             C 73  -- C 90                  -0.10         0.00          2.84072
             C 30  -- C 153                 -0.10        -0.00          2.84076
             C 12  -- C 135                 -0.10        -0.00          2.84111
             C 19  -- C 36                  -0.10         0.00          2.84114
             C 28  -- C 151                 -0.10        -0.00          2.84115
             C 8   -- C 131                 -0.10        -0.00          2.84117
             C 91  -- C 108                 -0.10         0.00          2.84156
             C 10  -- C 133                 -0.10         0.00          2.84167
             C 32  -- C 155                 -0.10         0.00          2.84174
             C 14  -- C 137                 -0.10        -0.00          2.84190
             C 34  -- C 157                 -0.10        -0.00          2.84224
             C 16  -- C 139                 -0.10         0.00          2.84277
             C 26  -- C 149                 -0.10         0.00          2.84288
             C 63  -- C 66                  -0.10        -0.00          2.84313
             C 127 -- C 144                 -0.10         0.00          2.84345
             C 6   -- C 129                 -0.10        -0.00          2.84353
             C 4   -- C 127                 -0.10         0.00          2.84356
             C 18  -- C 141                 -0.10        -0.00          2.84398
             C 24  -- C 147                 -0.10        -0.00          2.84412
             C 22  -- C 145                 -0.10        -0.00          2.84415
             C 109 -- C 126                 -0.10         0.00          2.84419
             C 60  -- C 61                  -0.10         0.00          2.84435
             C 36  -- C 159                 -0.10        -0.00          2.84435
             C 81  -- C 120                 -0.10        -0.00          2.84444
             C 1   -- C 18                  -0.10         0.00          2.84473
             C 146 -- C 161                 -0.10         0.00          2.84495
             C 2   -- C 17                  -0.10         0.00          2.84504
             C 128 -- C 143                 -0.10        -0.00          2.84624
             C 20  -- C 35                  -0.10        -0.00          2.84653
             C 145 -- C 162                 -0.10         0.00          2.84727
             C 38  -- C 53                  -0.10        -0.00          2.84737
             C 20  -- C 161                 -0.10         0.00          2.84750
             C 56  -- C 71                  -0.10         0.00          2.84757
             C 110 -- C 125                 -0.10         0.00          2.84767
             C 92  -- C 107                 -0.10        -0.00          2.84781
             C 160 -- C 161                 -0.10         0.00          2.84795
             C 2   -- C 143                 -0.10        -0.00          2.84808
             C 74  -- C 89                  -0.10        -0.00          2.84836
             C 2   -- C 3                   -0.10         0.00          2.84895
             C 70  -- C 71                  -0.10         0.00          2.84932
             C 145 -- C 148                 -0.10         0.00          2.84935
             C 52  -- C 53                  -0.10         0.00          2.84952
             C 9   -- C 12                  -0.10        -0.00          2.84973
             C 38  -- C 39                  -0.10         0.00          2.84979
             C 15  -- C 18                  -0.10        -0.00          2.84979
             C 34  -- C 35                  -0.10         0.00          2.84983
             C 59  -- C 62                  -0.10         0.00          2.84986
             C 153 -- C 156                 -0.10        -0.00          2.84988
             C 13  -- C 16                  -0.10        -0.00          2.84993
             C 11  -- C 14                  -0.10         0.00          2.84996
             C 92  -- C 93                  -0.10         0.00          2.85006
             C 123 -- C 162                 -0.10         0.00          2.85006
             C 88  -- C 89                  -0.10         0.00          2.85011
             C 142 -- C 143                 -0.10         0.00          2.85022
             C 41  -- C 80                  -0.10         0.00          2.85024
             C 100 -- C 101                 -0.10        -0.00          2.85029
             C 1   -- C 40                  -0.10        -0.00          2.85034
             C 74  -- C 75                  -0.10         0.00          2.85038
             C 56  -- C 57                  -0.10         0.00          2.85043
             C 155 -- C 158                 -0.10        -0.00          2.85052
             C 99  -- C 102                 -0.10        -0.00          2.85057
             C 20  -- C 21                  -0.10         0.00          2.85059
             C 64  -- C 65                  -0.10        -0.00          2.85065
             C 149 -- C 152                 -0.10        -0.00          2.85075
             C 47  -- C 50                  -0.10        -0.00          2.85078
             C 17  -- C 38                  -0.10        -0.00          2.85081
             C 119 -- C 158                 -0.10        -0.00          2.85082
             C 147 -- C 150                 -0.10        -0.00          2.85090
             C 16  -- C 17                  -0.10         0.00          2.85092
             C 151 -- C 154                 -0.10         0.00          2.85096
             C 69  -- C 72                  -0.10        -0.00          2.85112
             C 157 -- C 160                 -0.10         0.00          2.85122
             C 110 -- C 111                 -0.10         0.00          2.85127
             C 3   -- C 6                   -0.10         0.00          2.85137
             C 115 -- C 118                 -0.10        -0.00          2.85139
             C 22  -- C 23                  -0.10         0.00          2.85144
             C 7   -- C 46                  -0.10        -0.00          2.85149
             C 158 -- C 159                 -0.10         0.00          2.85153
             C 51  -- C 54                  -0.10        -0.00          2.85160
             C 19  -- C 58                  -0.10         0.00          2.85162
             C 7   -- C 10                  -0.10        -0.00          2.85164
             C 146 -- C 147                 -0.10         0.00          2.85178
             C 45  -- C 84                  -0.10        -0.00          2.85180
             C 29  -- C 32                  -0.10        -0.00          2.85181
             C 35  -- C 56                  -0.10        -0.00          2.85182
             C 128 -- C 129                 -0.10         0.00          2.85183
             C 31  -- C 34                  -0.10        -0.00          2.85184
             C 4   -- C 5                   -0.10         0.00          2.85191
             C 45  -- C 48                  -0.10        -0.00          2.85193
             C 33  -- C 36                  -0.10         0.00          2.85194
             C 106 -- C 107                 -0.10         0.00          2.85195
             C 159 -- C 162                 -0.10        -0.00          2.85199
             C 3   -- C 42                  -0.10         0.00          2.85203
             C 65  -- C 68                  -0.10         0.00          2.85204
             C 121 -- C 160                 -0.10        -0.00          2.85209
             C 140 -- C 141                 -0.10         0.00          2.85210
             C 53  -- C 74                  -0.10         0.00          2.85212
             C 5   -- C 8                   -0.10         0.00          2.85212
             C 37  -- C 40                  -0.10         0.00          2.85220
             C 49  -- C 52                  -0.10         0.00          2.85221
             C 124 -- C 125                 -0.10         0.00          2.85232
             C 122 -- C 123                 -0.10         0.00          2.85234
             C 87  -- C 90                  -0.10         0.00          2.85235
             C 1   -- C 4                   -0.10        -0.00          2.85235
             C 133 -- C 136                 -0.10        -0.00          2.85249
             C 125 -- C 146                 -0.10        -0.00          2.85250
             C 75  -- C 78                  -0.10         0.00          2.85251
             C 27  -- C 30                  -0.10         0.00          2.85254
             C 67  -- C 70                  -0.10        -0.00          2.85261
             C 123 -- C 126                 -0.10         0.00          2.85261
             C 91  -- C 94                  -0.10         0.00          2.85266
             C 11  -- C 50                  -0.10        -0.00          2.85269
             C 137 -- C 140                 -0.10        -0.00          2.85271
             C 105 -- C 108                 -0.10        -0.00          2.85272
             C 135 -- C 138                 -0.10         0.00          2.85275
             C 89  -- C 110                 -0.10        -0.00          2.85280
             C 131 -- C 134                 -0.10        -0.00          2.85281
             C 105 -- C 144                 -0.10        -0.00          2.85284
             C 73  -- C 76                  -0.10        -0.00          2.85285
             C 13  -- C 52                  -0.10        -0.00          2.85286
             C 55  -- C 58                  -0.10        -0.00          2.85287
             C 127 -- C 130                 -0.10         0.00          2.85289
             C 25  -- C 28                  -0.10        -0.00          2.85290
             C 9   -- C 48                  -0.10         0.00          2.85292
             C 15  -- C 54                  -0.10         0.00          2.85293
             C 85  -- C 88                  -0.10        -0.00          2.85297
             C 117 -- C 156                 -0.10         0.00          2.85299
             C 103 -- C 142                 -0.10        -0.00          2.85300
             C 21  -- C 60                  -0.10        -0.00          2.85303
             C 71  -- C 92                  -0.10         0.00          2.85306
             C 109 -- C 112                 -0.10        -0.00          2.85311
             C 86  -- C 87                  -0.10         0.00          2.85311
             C 101 -- C 140                 -0.10         0.00          2.85328
             C 6   -- C 7                   -0.10         0.00          2.85330
             C 138 -- C 139                 -0.10         0.00          2.85330
             C 21  -- C 24                  -0.10         0.00          2.85335
             C 40  -- C 41                  -0.10         0.00          2.85342
             C 107 -- C 128                 -0.10         0.00          2.85346
             C 14  -- C 15                  -0.10         0.00          2.85348
             C 120 -- C 121                 -0.10         0.00          2.85352
             C 117 -- C 120                 -0.10         0.00          2.85358
             C 113 -- C 152                 -0.10        -0.00          2.85358
             C 57  -- C 60                  -0.10        -0.00          2.85366
             C 121 -- C 124                 -0.10        -0.00          2.85372
             C 99  -- C 138                 -0.10        -0.00          2.85375
             C 129 -- C 132                 -0.10         0.00          2.85379
             C 156 -- C 157                 -0.10         0.00          2.85383
             C 87  -- C 126                 -0.10         0.00          2.85385
             C 115 -- C 154                 -0.10        -0.00          2.85394
             C 150 -- C 151                 -0.10         0.00          2.85401
             C 58  -- C 59                  -0.10         0.00          2.85401
             C 37  -- C 76                  -0.10        -0.00          2.85403
             C 19  -- C 22                  -0.10        -0.00          2.85405
             C 41  -- C 44                  -0.10         0.00          2.85406
             C 76  -- C 77                  -0.10         0.00          2.85424
             C 109 -- C 148                 -0.10        -0.00          2.85424
             C 154 -- C 155                 -0.10         0.00          2.85424
             C 141 -- C 144                 -0.10         0.00          2.85429
             C 57  -- C 96                  -0.10         0.00          2.85433
             C 26  -- C 27                  -0.10         0.00          2.85440
             C 39  -- C 78                  -0.10         0.00          2.85440
             C 148 -- C 149                 -0.10         0.00          2.85440
             C 29  -- C 68                  -0.10        -0.00          2.85443
             C 39  -- C 42                  -0.10         0.00          2.85444
             C 10  -- C 11                  -0.10         0.00          2.85445
             C 12  -- C 13                  -0.10         0.00          2.85445
             C 111 -- C 150                 -0.10         0.00          2.85446
             C 139 -- C 142                 -0.10         0.00          2.85447
             C 32  -- C 33                  -0.10         0.00          2.85456
             C 67  -- C 106                 -0.10        -0.00          2.85460
             C 8   -- C 9                   -0.10         0.00          2.85467
             C 152 -- C 153                 -0.10         0.00          2.85476
             C 113 -- C 116                 -0.10         0.00          2.85480
             C 116 -- C 117                 -0.10         0.00          2.85484
             C 42  -- C 43                  -0.10        -0.00          2.85485
             C 101 -- C 104                 -0.10         0.00          2.85485
             C 44  -- C 45                  -0.10         0.00          2.85489
             C 50  -- C 51                  -0.10         0.00          2.85495
             C 68  -- C 69                  -0.10         0.00          2.85496
             C 59  -- C 98                  -0.10         0.00          2.85497
             C 24  -- C 25                  -0.10         0.00          2.85497
             C 66  -- C 67                  -0.10         0.00          2.85497
             C 69  -- C 108                 -0.10         0.00          2.85501
             C 55  -- C 94                  -0.10        -0.00          2.85503
             C 27  -- C 66                  -0.10         0.00          2.85505
             C 51  -- C 90                  -0.10        -0.00          2.85509
             C 33  -- C 72                  -0.10        -0.00          2.85515
             C 93  -- C 96                  -0.10        -0.00          2.85517
             C 94  -- C 95                  -0.10         0.00          2.85520
             C 97  -- C 136                 -0.10        -0.00          2.85520
             C 73  -- C 112                 -0.10         0.00          2.85525
             C 43  -- C 46                  -0.10         0.00          2.85526
             C 111 -- C 114                 -0.10        -0.00          2.85526
             C 114 -- C 115                 -0.10         0.00          2.85528
             C 48  -- C 49                  -0.10         0.00          2.85535
             C 77  -- C 80                  -0.10        -0.00          2.85536
             C 31  -- C 70                  -0.10         0.00          2.85538
             C 112 -- C 113                 -0.10         0.00          2.85539
             C 136 -- C 137                 -0.10         0.00          2.85542
             C 132 -- C 133                 -0.10         0.00          2.85543
             C 23  -- C 26                  -0.10         0.00          2.85548
             C 97  -- C 100                 -0.10         0.00          2.85548
             C 98  -- C 99                  -0.10         0.00          2.85549
             C 119 -- C 122                 -0.10         0.00          2.85552
             C 103 -- C 106                 -0.10         0.00          2.85553
             C 91  -- C 130                 -0.10         0.00          2.85559
             C 75  -- C 114                 -0.10         0.00          2.85560
             C 49  -- C 88                  -0.10         0.00          2.85561
             C 134 -- C 135                 -0.10         0.00          2.85567
             C 83  -- C 86                  -0.10        -0.00          2.85573
             C 130 -- C 131                 -0.10         0.00          2.85574
             C 65  -- C 104                 -0.10         0.00          2.85575
             C 30  -- C 31                  -0.10         0.00          2.85585
             C 118 -- C 119                 -0.10         0.00          2.85588
             C 93  -- C 132                 -0.10        -0.00          2.85607
             C 102 -- C 103                 -0.10         0.00          2.85609
             C 28  -- C 29                  -0.10         0.00          2.85611
             C 23  -- C 62                  -0.10        -0.00          2.85614
             C 85  -- C 124                 -0.10         0.00          2.85618
             C 78  -- C 79                  -0.10        -0.00          2.85628
             C 84  -- C 85                  -0.10         0.00          2.85651
             C 46  -- C 47                  -0.10         0.00          2.85655
             C 83  -- C 122                 -0.10        -0.00          2.85656
             C 95  -- C 134                 -0.10         0.00          2.85661
             C 47  -- C 86                  -0.10         0.00          2.85669
             C 96  -- C 97                  -0.10         0.00          2.85682
             C 25  -- C 64                  -0.10         0.00          2.85691
             C 79  -- C 118                 -0.10         0.00          2.85694
             C 77  -- C 116                 -0.10         0.00          2.85740
             C 95  -- C 98                  -0.10         0.00          2.85820
             C 5   -- C 44                  -0.10         0.00          2.85840
             C 104 -- C 105                 -0.10         0.00          2.85928
             C 61  -- C 64                  -0.09         0.00          2.86378
             C 61  -- C 100                 -0.09         0.00          2.86474
             C 62  -- C 63                  -0.09        -0.00          2.86536
             C 80  -- C 81                  -0.09        -0.00          2.86582
             C 81  -- C 84                  -0.09         0.00          2.86587
             C 63  -- C 102                 -0.09         0.00          2.86680
             C 79  -- C 82                  -0.10         0.00          2.86879
             C 43  -- C 82                  -0.10         0.00          2.86976
             C 82  -- C 83                  -0.10         0.00          2.87138
================================================================================
 

Writing analysis data to 9x9.castep_bin

Writing model to 9x9.check
 
 A BibTeX formatted list of references used in this run has been written to 
 9x9.bib
 
Initialisation time =      4.14 s
Calculation time    =   9049.01 s
Finalisation time   =      8.50 s
Total time          =   9061.65 s
Peak Memory Use     = 1100996 kB
  
Overall parallel efficiency rating: Poor (39%)                                  
  
Data was distributed by:-
G-vector (128-way); efficiency rating: Poor (39%)                               
