 +-------------------------------------------------+
 |                                                 |
 |      CCC   AA    SSS  TTTTT  EEEEE  PPPP        |
 |     C     A  A  S       T    E      P   P       |
 |     C     AAAA   SS     T    EEE    PPPP        |
 |     C     A  A     S    T    E      P           |
 |      CCC  A  A  SSS     T    EEEEE  P           |
 |                                                 |
 +-------------------------------------------------+
 |                                                 |
 | Welcome to Academic Release CASTEP version 21.11|          
 | Ab Initio Total Energy Program                  |
 |                                                 |
 | Authors:                                        |
 | M. Segall, M. Probert, C. Pickard, P. Hasnip,   |
 | S. Clark, K. Refson, J. R. Yates, M. Payne      |
 |                                                 |
 | Contributors:                                   |
 | P. Lindan, P. Haynes, J. White, V. Milman,      |
 | N. Govind, M. Gibson, P. Tulip, V. Cocula,      |
 | B. Montanari, D. Quigley, M. Glover,            |
 | L. Bernasconi, A. Perlov, M. Plummer,           |
 | E. McNellis, J. Meyer, J. Gale, D. Jochym       |
 | J. Aarons, B. Walker, R. Gillen, D. Jones       |
 | T. Green, I. J. Bush, C. J. Armstrong,          |
 | E. J. Higgins, E. L. Brown, M. S. McFly,        |
 | J. Wilkins, B-C. Shih, P. J. P. Byrne,          |
 | R. J. Maurer, J. C. Womack, J. Dziedzic,        |
 | A. Bartok-Partay, L. LeBlanc                    |
 |                                                 |
 | Copyright (c) 2000 - 2021                       |
 |                                                 |
 |     Distributed under license from Cambridge    |
 |     Enterprise for academic use only.           |
 |                                                 |
 | Please cite                                     |
 |                                                 |
 |     "First principles methods using CASTEP"     |
 |                                                 |
 |         Zeitschrift fuer Kristallographie       |
 |           220(5-6) pp. 567-570 (2005)           |
 |                                                 |
 | S. J. Clark, M. D. Segall, C. J. Pickard,       |
 | P. J. Hasnip, M. J. Probert, K. Refson,         |
 | M. C. Payne                                     |
 |                                                 |
 |       in all publications arising from          |
 |              your use of CASTEP                 |
 |                                                 |
 +-------------------------------------------------+
 |                                                 |
 |              http://www.castep.org              |
 |                                                 |
 +-------------------------------------------------+
 
 
 
 Compiled for linux_x86_64_cray-XT on Tue, 01 Mar 2022 09:19:15 +0000
 from code version 7d4405a8a+  HEAD  Sat Nov 27 13:38:33 2021 +0000
 Compiler: Cray Fortran 12.0.3; Optimisation: fast
 MATHLIBS: LibSci (LAPACK version 3.6.1)
 FFT Lib : fftw3 version commercial-fftw-3.3.8-sse2-avx-avx2-avx2_128
 Fundamental constants values: CODATA 2014
 
 Run started: Thu, 27 Oct 2022 14:46:12 -0100
 
 Atomic calculation performed for H: 1s1
 
 Converged in 41 iterations to an ae energy of -12.488 eV
 
   ============================================================                
   | Pseudopotential Report - Date of generation 27-10-2022   |                
   ------------------------------------------------------------                
   | Element: H Ionic charge:  1.00 Level of theory: PBE      |                
   | Atomic Solver: Koelling-Harmon                           |                
   |                                                          |                
   |               Reference Electronic Structure             |                
   |         Orbital         Occupation         Energy        |                
   |            1s              1.000           -0.239        |                
   |                                                          |                
   |                 Pseudopotential Definition               |                
   |        Beta     l      e      Rc     scheme   norm       |                
   |          1      0   -0.239   0.599     qc      0         |                
   |          2      0    0.250   0.599     qc      0         |                
   |         loc     1    0.000   0.599     pn      0         |                
   |                                                          |                
   | Augmentation charge Rinner = 0.421                       |                
   | No partial core correction                               |                
   ------------------------------------------------------------                
   | "1|0.6|13|15|17|10(qc=8)"                                |                
   ------------------------------------------------------------                
   |      Author: Chris J. Pickard, Cambridge University      |                
   ============================================================                
 
 Atomic calculation performed for C: 1s2 2s2 2p2
 
 Converged in 54 iterations to an ae energy of -1027.632 eV
 
   ============================================================                
   | Pseudopotential Report - Date of generation 27-10-2022   |                
   ------------------------------------------------------------                
   | Element: C Ionic charge:  4.00 Level of theory: PBE      |                
   | Atomic Solver: Koelling-Harmon                           |                
   |                                                          |                
   |               Reference Electronic Structure             |                
   |         Orbital         Occupation         Energy        |                
   |            2s              2.000           -0.505        |                
   |            2p              2.000           -0.194        |                
   |                                                          |                
   |                 Pseudopotential Definition               |                
   |        Beta     l      e      Rc     scheme   norm       |                
   |          1      0   -0.505   1.201     qc      1         |                
   |         loc     1   -0.194   1.201     qc      1         |                
   |                                                          |                
   | No charge augmentation                                   |                
   | Partial core correction Rc = 0.839                       |                
   ------------------------------------------------------------                
   | "1|1.2|17|20|23|20N:21L(qc=8)"                           |                
   ------------------------------------------------------------                
   |      Author: Chris J. Pickard, Cambridge University      |                
   ============================================================                
 
 Pseudo atomic calculation performed for H 1s1
 
 Converged in 13 iterations to a total energy of -12.4856 eV
 
 Pseudo atomic calculation performed for C 2s2 2p2
 
 Converged in 18 iterations to a total energy of -152.4291 eV
 Calculation parallelised over 128 processes.
 Data is distributed by G-vector(128-way)

 ************************************ Title ************************************
 

 ***************************** General Parameters ******************************
  
 output verbosity                               : normal  (1)
 write checkpoint data to                       : 9x9.check
 type of calculation                            : geometry optimization
 stress calculation                             : off
 density difference calculation                 : off
 electron localisation func (ELF) calculation   : off
 Hirshfeld analysis                             : off
 polarisation (Berry phase) analysis            : off
 molecular orbital projected DOS                : off
 deltaSCF calculation                           : off
 unlimited duration calculation
 timing information                             : on
 memory usage estimate                          : on
 write extra output files                       : on
 write final potential to formatted file        : off
 write final density to formatted file          : off
 write structure in CELL formatted file         : on
 write BibTeX reference list                    : on
 write OTFG pseudopotential files               : on
 write electrostatic potential file             : on
 write bands file                               : on
 checkpoint writing                             : both castep_bin and check files
  
 output         length unit                     : A
 output           mass unit                     : amu
 output           time unit                     : ps
 output         charge unit                     : e
 output           spin unit                     : hbar/2
 output         energy unit                     : eV
 output          force unit                     : eV/A
 output       velocity unit                     : A/ps
 output       pressure unit                     : GPa
 output     inv_length unit                     : 1/A
 output      frequency unit                     : cm-1
 output force constant unit                     : eV/A**2
 output         volume unit                     : A**3
 output   IR intensity unit                     : (D/A)**2/amu
 output         dipole unit                     : D
 output         efield unit                     : eV/A/e
 output        entropy unit                     : J/mol/K
 output    efield chi2 unit                     : pm/V
  
 wavefunctions paging                           : none
 random number generator seed                   : randomised (144612235)
 data distribution                              : optimal for this architecture
 optimization strategy                          : maximize speed(+++)

 *********************** Exchange-Correlation Parameters ***********************
  
 using functional                               : Perdew Burke Ernzerhof
 relativistic treatment                         : Koelling-Harmon
 DFT+D: Semi-empirical dispersion correction    : on
 SEDC with                                      : MBD@rsSCS method

 ************************* Pseudopotential Parameters **************************
  
 pseudopotential representation                 : reciprocal space
 <beta|phi> representation                      : reciprocal space
 spin-orbit coupling                            : off

 **************************** Basis Set Parameters *****************************
  
 plane wave basis set cut-off                   :   800.0000   eV
 size of standard grid                          :     1.7500
 size of   fine   gmax                          :    25.3584   1/A
 finite basis set correction                    : none

 **************************** Electronic Parameters ****************************
  
 number of  electrons                           :  649.0    
 net charge of system                           :  0.000    
 net spin   of system                           :  1.000    
 number of  up  spins                           :  325.0    
 number of down spins                           :  324.0    
 treating system as spin-polarized
 number of bands                                :        488

 ********************* Electronic Minimization Parameters **********************
  
 Method: Treating system as metallic with density mixing treatment of electrons,
         and number of  SD  steps               :          1
         and number of  CG  steps               :          4
  
 total energy / atom convergence tol.           : 0.1000E-05   eV
 eigen-energy convergence tolerance             : 0.3340E-06   eV
 max force / atom convergence tol.              : ignored
 convergence tolerance window                   :          3   cycles
 max. number of SCF cycles                      :        100
 number of fixed-spin iterations                :         10
 smearing scheme                                : Gaussian
 smearing width                                 : 0.2000       eV
 Fermi energy convergence tolerance             : 0.2721E-13   eV
 periodic dipole correction                     : NONE

 ************************** Density Mixing Parameters **************************
  
 density-mixing scheme                          : Pulay
 max. length of mixing history                  :         20
 charge density mixing amplitude                : 0.8000    
   spin density mixing amplitude                :  2.000    
 cut-off energy for mixing                      :  800.0       eV

 *********************** Population Analysis Parameters ************************
  
 Population analysis with cutoff                :  3.000       A
 Population analysis output                     : summary and pdos components

 ********************** Geometry Optimization Parameters ***********************
  
 optimization method                            : LBFGS
 max. no. of LBFGS updates                      : unbounded
 variable cell method                           : fixed basis quality
 max. number of steps                           :        100
 estimated bulk modulus                         :  500.0       GPa
 estimated <frequency>                          :  1668.       cm-1
 geom line minimiser                            : on
 with line minimiser tolerance                  :     0.4000
  with spin fully able to relax for all steps
 total energy convergence tolerance             : 0.2000E-04   eV/atom
        max ionic |force| tolerance             : 0.1000E-01   eV/A
 max ionic |displacement| tolerance             : 0.1000E-02   A
   max |stress component| tolerance             : 0.1000       GPa
 convergence tolerance window                   :          2   steps
 backup results every                           :          5   steps
 write geom trajectory file                     : on

 *******************************************************************************
  
 
                           -------------------------------
                                      Unit Cell
                           -------------------------------
        Real Lattice(A)                      Reciprocal Lattice(1/A)
    22.2300000     0.0000000     0.0000000        0.282644413   0.163184826   0.000000000
   -11.1150000    19.2517450     0.0000000        0.000000000   0.326369652   0.000000000
     0.0000000     0.0000000    20.0340000        0.000000000   0.000000000   0.313626101
 
                       Lattice parameters(A)       Cell Angles
                    a =     22.230000          alpha =   90.000000
                    b =     22.230000          beta  =   90.000000
                    c =     20.034000          gamma =  120.000000
 
                       Current cell volume =          8573.876681       A**3
                                   density =             0.227055   AMU/A**3
                                           =             0.377034     g/cm^3
 
                           -------------------------------
                                     Cell Contents
                           -------------------------------
                         Total number of ions in cell =  163
                      Total number of species in cell =    2
                        Max number of any one species =  162
 
            xxxxxxxxxxxxxxxxxxxxxxxxxxxxxxxxxxxxxxxxxxxxxxxxxxxxxxxxxxxx
            x  Element    Atom        Fractional coordinates of atoms  x
            x            Number           u          v          w      x
            x----------------------------------------------------------x
            x  H            1         0.400857   0.365643   0.649609   x 
            x  C            1         0.073932   0.036869   0.500000   x 
            x  C            2        -0.000030  -0.000052   0.500000   x 
            x  C            3         0.073778   0.147898   0.500000   x 
            x  C            4        -0.000201   0.110889   0.500000   x 
            x  C            5         0.073711   0.259010   0.500000   x 
            x  C            6        -0.000261   0.221969   0.500000   x 
            x  C            7         0.073731   0.370179   0.500000   x 
            x  C            8        -0.000241   0.333139   0.500000   x 
            x  C            9         0.073780   0.481380   0.500000   x 
            x  C           10        -0.000192   0.444339   0.500000   x 
            x  C           11         0.073830   0.592590   0.500000   x 
            x  C           12        -0.000130   0.555539   0.500000   x 
            x  C           13         0.073880   0.703801   0.500000   x 
            x  C           14        -0.000090   0.666740   0.500000   x 
            x  C           15         0.073910   0.814991   0.500000   x 
            x  C           16        -0.000070   0.777898   0.500000   x 
            x  C           17         0.073892   0.926020   0.500000   x 
            x  C           18        -0.000112   0.888990   0.500000   x 
            x  C           19         0.184940   0.036708   0.500000   x 
            x  C           20         0.110930  -0.000182   0.500000   x 
            x  C           21         0.184928   0.147878   0.500000   x 
            x  C           22         0.110837   0.110878   0.500000   x 
            x  C           23         0.184882   0.259031   0.500000   x 
            x  C           24         0.110751   0.221969   0.500000   x 
            x  C           25         0.184861   0.370190   0.500000   x 
            x  C           26         0.110730   0.333102   0.500000   x 
            x  C           27         0.184892   0.481390   0.500000   x 
            x  C           28         0.110760   0.444282   0.500000   x 
            x  C           29         0.184951   0.592601   0.500000   x 
            x  C           30         0.110810   0.555493   0.500000   x 
            x  C           31         0.185001   0.703822   0.500000   x 
            x  C           32         0.110871   0.666708   0.500000   x 
            x  C           33         0.185041   0.815012   0.500000   x 
            x  C           34         0.110907   0.777919   0.500000   x 
            x  C           35         0.185010   0.925999   0.500000   x 
            x  C           36         0.110932   0.889062   0.500000   x 
            x  C           37         0.296042   0.036672   0.500000   x 
            x  C           38         0.221989  -0.000260   0.500000   x 
            x  C           39         0.296070   0.147831   0.500000   x 
            x  C           40         0.221962   0.110780   0.500000   x 
            x  C           41         0.296089   0.259052   0.500000   x 
            x  C           42         0.221962   0.221980   0.500000   x 
            x  C           43         0.296093   0.370242   0.500000   x 
            x  C           44         0.221941   0.333149   0.500000   x 
            x  C           45         0.296110   0.481442   0.500000   x 
            x  C           46         0.221948   0.444329   0.500000   x 
            x  C           47         0.296157   0.592648   0.500000   x 
            x  C           48         0.221997   0.555529   0.500000   x 
            x  C           49         0.296208   0.703869   0.500000   x 
            x  C           50         0.222048   0.666750   0.500000   x 
            x  C           51         0.296247   0.815059   0.500000   x 
            x  C           52         0.222102   0.777961   0.500000   x 
            x  C           53         0.296199   0.926020   0.500000   x 
            x  C           54         0.222119   0.889078   0.500000   x 
            x  C           55         0.407210   0.036688   0.500000   x 
            x  C           56         0.333141  -0.000249   0.500000   x 
            x  C           57         0.407230   0.147820   0.500000   x 
            x  C           58         0.333097   0.110738   0.500000   x 
            x  C           59         0.407281   0.259052   0.500000   x 
            x  C           60         0.333139   0.221959   0.500000   x 
            x  C           61         0.407320   0.370268   0.500000   x 
            x  C           62         0.333171   0.333180   0.500000   x 
            x  C           63         0.407338   0.481478   0.500000   x 
            x  C           64         0.333180   0.444380   0.500000   x 
            x  C           65         0.407380   0.592700   0.500000   x 
            x  C           66         0.333221   0.555591   0.500000   x 
            x  C           67         0.407430   0.703921   0.500000   x 
            x  C           68         0.333271   0.666812   0.500000   x 
            x  C           69         0.407470   0.815111   0.500000   x 
            x  C           70         0.333320   0.778013   0.500000   x 
            x  C           71         0.407413   0.926072   0.500000   x 
            x  C           72         0.333328   0.889130   0.500000   x 
            x  C           73         0.518410   0.036740   0.500000   x 
            x  C           74         0.444341  -0.000208   0.500000   x 
            x  C           75         0.518429   0.147862   0.500000   x 
            x  C           76         0.444277   0.110759   0.500000   x 
            x  C           77         0.518477   0.259067   0.500000   x 
            x  C           78         0.444332   0.221969   0.500000   x 
            x  C           79         0.518528   0.370299   0.500000   x 
            x  C           80         0.444369   0.333201   0.500000   x 
            x  C           81         0.518560   0.481510   0.500000   x 
            x  C           82         0.444401   0.444412   0.500000   x 
            x  C           83         0.518592   0.592731   0.500000   x 
            x  C           84         0.444440   0.555628   0.500000   x 
            x  C           85         0.518643   0.703962   0.500000   x 
            x  C           86         0.444481   0.666849   0.500000   x 
            x  C           87         0.518677   0.815168   0.500000   x 
            x  C           88         0.444532   0.778070   0.500000   x 
            x  C           89         0.518629   0.926129   0.500000   x 
            x  C           90         0.444550   0.889182   0.500000   x 
            x  C           91         0.629629   0.036802   0.500000   x 
            x  C           92         0.555548  -0.000151   0.500000   x 
            x  C           93         0.629640   0.147909   0.500000   x 
            x  C           94         0.555491   0.110811   0.500000   x 
            x  C           95         0.629690   0.259119   0.500000   x 
            x  C           96         0.555530   0.222001   0.500000   x 
            x  C           97         0.629750   0.370340   0.500000   x 
            x  C           98         0.555581   0.333232   0.500000   x 
            x  C           99         0.629781   0.481551   0.500000   x 
            x  C          100         0.555620   0.444448   0.500000   x 
            x  C          101         0.629789   0.592741   0.500000   x 
            x  C          102         0.555648   0.555659   0.500000   x 
            x  C          103         0.629822   0.703962   0.500000   x 
            x  C          104         0.555680   0.666880   0.500000   x 
            x  C          105         0.629861   0.815188   0.500000   x 
            x  C          106         0.555731   0.778101   0.500000   x 
            x  C          107         0.629820   0.926181   0.500000   x 
            x  C          108         0.555749   0.889239   0.500000   x 
            x  C          109         0.740840   0.036849   0.500000   x 
            x  C          110         0.666762  -0.000088   0.500000   x 
            x  C          111         0.740859   0.147971   0.500000   x 
            x  C          112         0.666707   0.110868   0.500000   x 
            x  C          113         0.740909   0.259182   0.500000   x 
            x  C          114         0.666751   0.222058   0.500000   x 
            x  C          115         0.740972   0.370392   0.500000   x 
            x  C          116         0.666810   0.333279   0.500000   x 
            x  C          117         0.741010   0.481598   0.500000   x 
            x  C          118         0.666851   0.444490   0.500000   x 
            x  C          119         0.741018   0.592777   0.500000   x 
            x  C          120         0.666869   0.555690   0.500000   x 
            x  C          121         0.740999   0.703941   0.500000   x 
            x  C          122         0.666868   0.666880   0.500000   x 
            x  C          123         0.741013   0.815152   0.500000   x 
            x  C          124         0.666891   0.778101   0.500000   x 
            x  C          125         0.740972   0.926191   0.500000   x 
            x  C          126         0.666920   0.889260   0.500000   x 
            x  C          127         0.852029   0.036869   0.500000   x 
            x  C          128         0.777960  -0.000068   0.500000   x 
            x  C          129         0.852063   0.148013   0.500000   x 
            x  C          130         0.777921   0.110920   0.500000   x 
            x  C          131         0.852101   0.259218   0.500000   x 
            x  C          132         0.777960   0.222110   0.500000   x 
            x  C          133         0.852152   0.370439   0.500000   x 
            x  C          134         0.778019   0.333331   0.500000   x 
            x  C          135         0.852201   0.481639   0.500000   x 
            x  C          136         0.778069   0.444542   0.500000   x 
            x  C          137         0.852231   0.592829   0.500000   x 
            x  C          138         0.778100   0.555731   0.500000   x 
            x  C          139         0.852210   0.703962   0.500000   x 
            x  C          140         0.778088   0.666901   0.500000   x 
            x  C          141         0.852121   0.815038   0.500000   x 
            x  C          142         0.778030   0.778049   0.500000   x 
            x  C          143         0.852037   0.926108   0.500000   x 
            x  C          144         0.778019   0.889218   0.500000   x 
            x  C          145         0.963073   0.036942   0.500000   x 
            x  C          146         0.889070  -0.000088   0.500000   x 
            x  C          147         0.963038   0.148028   0.500000   x 
            x  C          148         0.889051   0.110941   0.500000   x 
            x  C          149         0.963051   0.259192   0.500000   x 
            x  C          150         0.889081   0.222131   0.500000   x 
            x  C          151         0.963099   0.370382   0.500000   x 
            x  C          152         0.889131   0.333341   0.500000   x 
            x  C          153         0.963151   0.481588   0.500000   x 
            x  C          154         0.889190   0.444552   0.500000   x 
            x  C          155         0.963200   0.592788   0.500000   x 
            x  C          156         0.889239   0.555752   0.500000   x 
            x  C          157         0.963222   0.703952   0.500000   x 
            x  C          158         0.889250   0.666921   0.500000   x 
            x  C          159         0.963159   0.815027   0.500000   x 
            x  C          160         0.889189   0.778018   0.500000   x 
            x  C          161         0.962989   0.925978   0.500000   x 
            x  C          162         0.889030   0.889062   0.500000   x 
            xxxxxxxxxxxxxxxxxxxxxxxxxxxxxxxxxxxxxxxxxxxxxxxxxxxxxxxxxxxx
 
 
                         No user defined ionic velocities
 
                           -------------------------------
                                   Details of Species
                           -------------------------------
 
                               Mass of species in AMU
                                    H    1.0079400
                                    C   12.0107000
 
                          Electric Quadrupole Moment (Barn)
                                    H    0.0028600 Isotope  2
                                    C    0.0332700 Isotope 11
 
                          Files used for pseudopotentials:
                                    H 1|0.6|13|15|17|10(qc=8)
                                    C 1|1.2|17|20|23|20N:21L(qc=8)
 
                           -------------------------------
                              k-Points For BZ Sampling
                           -------------------------------
                       MP grid size for SCF calculation is  1  1  1
                            with an offset of   0.000  0.000  0.000
                       Number of kpoints used =   1
 
                           -------------------------------
                               Symmetry and Constraints
                           -------------------------------
 
                      Maximum deviation from symmetry =  0.00000         ANG
 
                      Number of symmetry operations   = 1
         There are no ionic constraints specified or generated for this cell
                      Point group of crystal =     1: C1, 1, 1
                      Space group of crystal =     1: P1, P 1
 
             Set iprint > 1 for details on symmetry rotations/translations
 
                         Centre of mass is NOT constrained
 
                         Number of cell constraints= 6
                         Cell constraints are:  0 0 0 0 0 0
 
                         External pressure/stress (GPa)
                          0.00000   0.00000   0.00000
                                    0.00000   0.00000
                                              0.00000
 
                                --------------------
                                  DFT-D parameters
                                --------------------
 
                          Dispersion-correction scheme : MBD*      
                        Parameter sR :   0.830000 (default)
 
        xxxxxxxxxxxxxxxxxxxxxxxxxxxxxxxxxxxxxxxxxxxxxxxxxxxxxxxxxxxxxxxxxxxx
        x              Atomic DFT-D parameters                             x
        x  Species      C6            alpha        R0                      x
        x               eV A^6        A^3          A                       x
        x------------------------------------------------------------------x
        x  H             3.8839       0.6668       1.6404   (default)      x
        x  C            27.8448       1.7782       1.8997   (default)      x
        xxxxxxxxxxxxxxxxxxxxxxxxxxxxxxxxxxxxxxxxxxxxxxxxxxxxxxxxxxxxxxxxxxxx
 
  
+---------------- MEMORY AND SCRATCH DISK ESTIMATES PER PROCESS --------------+
|                                                     Memory          Disk    |
| Baseline code, static data and system overhead      778.0 MB         0.0 MB |
| BLAS internal memory storage                          0.0 MB         0.0 MB |
| Model and support data                               52.8 MB         0.0 MB |
| Electronic energy minimisation requirements          98.7 MB         0.0 MB |
| Force calculation requirements                        8.0 MB         0.0 MB |
|                                               ----------------------------- |
| Approx. total storage required per process          929.6 MB         0.0 MB |
|                                                                             |
| Requirements will fluctuate during execution and may exceed these estimates |
+-----------------------------------------------------------------------------+
Calculating approximate eigenstates for fixed initial Hamiltonian
Cut-off for approx. calculation is  282.421 eV
Improving approx. states at cut-off of  462.594 eV
Resetting cut-off to  800.000 eV
Calculating total energy with cut-off of  800.000 eV.
------------------------------------------------------------------------ <-- SCF
SCF loop      Energy           Fermi           Energy gain       Timer   <-- SCF
                               energy          per atom          (sec)   <-- SCF
------------------------------------------------------------------------ <-- SCF
Initial  -2.38976433E+004  0.00000000E+000                        48.44  <-- SCF
      1  -2.62646019E+004 -5.64236140E+000   1.45212184E+001      79.56  <-- SCF
      2  -2.62651401E+004 -5.64324068E+000   3.30188798E-003     111.65  <-- SCF
      3  -2.62034575E+004 -4.39457886E+000  -3.78420765E-001     147.17  <-- SCF
      4  -2.61983408E+004 -3.92044054E+000  -3.13909371E-002     183.37  <-- SCF
      5  -2.61970914E+004 -3.82158628E+000  -7.66485517E-003     222.45  <-- SCF
      6  -2.61959993E+004 -3.50974740E+000  -6.70041139E-003     257.33  <-- SCF
      7  -2.61955377E+004 -3.41376913E+000  -2.83160669E-003     291.91  <-- SCF
      8  -2.61947845E+004 -3.18941597E+000  -4.62106386E-003     325.68  <-- SCF
      9  -2.61946745E+004 -3.03953116E+000  -6.74504476E-004     360.00  <-- SCF
     10  -2.61946564E+004 -3.03716138E+000  -1.11328893E-004     389.19  <-- SCF
     11  -2.61949419E+004 -3.03821623E+000   1.75166072E-003     422.01  <-- SCF
     12  -2.61947805E+004 -3.01274872E+000  -9.89898000E-004     452.90  <-- SCF
     13  -2.61947749E+004 -3.06634172E+000  -3.45530439E-005     480.33  <-- SCF
     14  -2.61946124E+004 -3.06235092E+000  -9.96857419E-004     508.17  <-- SCF
     15  -2.61945985E+004 -3.04589941E+000  -8.54540354E-005     536.84  <-- SCF
     16  -2.61947546E+004 -2.97470388E+000   9.57470784E-004     567.81  <-- SCF
     17  -2.61947231E+004 -2.91876536E+000  -1.92958526E-004     598.14  <-- SCF
     18  -2.61949122E+004 -2.86085442E+000   1.15984053E-003     630.21  <-- SCF
     19  -2.61948676E+004 -2.75490049E+000  -2.73638618E-004     660.66  <-- SCF
     20  -2.61947283E+004 -2.68910318E+000  -8.54253496E-004     691.91  <-- SCF
     21  -2.61947438E+004 -2.63173720E+000   9.51813689E-005     720.68  <-- SCF
     22  -2.61949220E+004 -2.56067710E+000   1.09311129E-003     750.09  <-- SCF
     23  -2.61947252E+004 -2.54132690E+000  -1.20762070E-003     780.09  <-- SCF
     24  -2.61947265E+004 -2.55907821E+000   7.84538946E-006     809.77  <-- SCF
     25  -2.61947053E+004 -2.54720711E+000  -1.29907153E-004     838.44  <-- SCF
     26  -2.61947666E+004 -2.50781546E+000   3.76298205E-004     867.61  <-- SCF
     27  -2.61947603E+004 -2.51154474E+000  -3.84321514E-005     897.43  <-- SCF
     28  -2.61947878E+004 -2.52174341E+000   1.68340269E-004     926.50  <-- SCF
     29  -2.61947988E+004 -2.52181972E+000   6.77308758E-005     954.47  <-- SCF
     30  -2.61948012E+004 -2.51823976E+000   1.43145660E-005     981.56  <-- SCF
     31  -2.61948048E+004 -2.51687350E+000   2.24725975E-005    1008.37  <-- SCF
     32  -2.61948060E+004 -2.51889873E+000   7.50722090E-006    1035.57  <-- SCF
     33  -2.61948076E+004 -2.51884013E+000   9.22462135E-006    1062.64  <-- SCF
     34  -2.61948083E+004 -2.51829514E+000   4.51764074E-006    1089.70  <-- SCF
     35  -2.61948088E+004 -2.51842272E+000   3.12475740E-006    1117.01  <-- SCF
     36  -2.61948090E+004 -2.51816511E+000   1.32763455E-006    1143.78  <-- SCF
     37  -2.61948091E+004 -2.51806854E+000   5.92730079E-007    1170.58  <-- SCF
     38  -2.61948092E+004 -2.51806383E+000   3.91027814E-007    1197.25  <-- SCF
------------------------------------------------------------------------ <-- SCF
 
Integrated Spin Density     =    0.416918E-03 hbar/2                        
Integrated |Spin Density|   =    0.178452E-02 hbar/2                        
 
Final energy, E             =  -26194.26176351     eV
Final free energy (E-TS)    =  -26194.80917391     eV
(energies not corrected for finite basis set)
 
NB est. 0K energy (E-0.5TS)      =  -26194.53546871     eV
 
(SEDC) Total Energy Correction : -0.134196E+02 eV

Dispersion corrected final energy*, Ecor          =  -26207.68133515     eV
Dispersion corrected final free energy* (Ecor-TS) =  -26208.22874555     eV
NB dispersion corrected est. 0K energy* (Ecor-0.5TS) =  -26207.95504035     eV

Writing analysis data to 9x9.castep_bin

Writing model to 9x9.check
 
+---------------- MEMORY AND SCRATCH DISK ESTIMATES PER PROCESS --------------+
|                                                     Memory          Disk    |
| Model and support data                               61.9 MB         0.0 MB |
| Electronic energy minimisation requirements          98.7 MB         0.0 MB |
| Geometry minimisation requirements                  126.2 MB         0.0 MB |
|                                               ----------------------------- |
| Approx. total storage required per process          286.8 MB         0.0 MB |
|                                                                             |
| Requirements will fluctuate during execution and may exceed these estimates |
+-----------------------------------------------------------------------------+
 
 
 ************************************** Forces **************************************
 *                                                                                  *
 *                           Cartesian components (eV/A)                            *
 * -------------------------------------------------------------------------------- *
 *                         x                    y                    z              *
 *                                                                                  *
 * H               1     -0.00050              0.00068              0.00878         *
 * C               1      0.00033             -0.00764              0.00034         *
 * C               2      0.01024             -0.00328              0.00014         *
 * C               3     -0.01183              0.00606              0.00010         *
 * C               4      0.00270              0.00999              0.00019         *
 * C               5      0.00467             -0.00534              0.00011         *
 * C               6      0.00050              0.00646              0.00018         *
 * C               7      0.00056             -0.00647              0.00031         *
 * C               8      0.00646              0.00644              0.00014         *
 * C               9     -0.00485             -0.00752              0.00014         *
 * C              10      0.00937              0.00131              0.00015         *
 * C              11      0.00797             -0.00323              0.00014         *
 * C              12     -0.01080              0.00574              0.00015         *
 * C              13      0.00180             -0.00009              0.00014         *
 * C              14      0.00281             -0.00215              0.00016         *
 * C              15     -0.00172              0.00657              0.00014         *
 * C              16     -0.00657              0.00226              0.00015         *
 * C              17     -0.00590              0.00256              0.00015         *
 * C              18      0.01067             -0.00700              0.00015         *
 * C              19      0.00048              0.01330             -0.00007         *
 * C              20     -0.00878              0.00293              0.00025         *
 * C              21      0.00297              0.00012             -0.00008         *
 * C              22      0.01417              0.00415              0.00026         *
 * C              23     -0.00716             -0.00410              0.00544         *
 * C              24      0.01146              0.00502             -0.00038         *
 * C              25      0.00128             -0.00174             -0.00010         *
 * C              26      0.00144              0.00657              0.00027         *
 * C              27      0.00623             -0.01313             -0.00006         *
 * C              28     -0.00285              0.00854              0.00023         *
 * C              29     -0.00452             -0.00696              0.00016         *
 * C              30      0.00461              0.00518              0.00017         *
 * C              31      0.00136             -0.00843              0.00014         *
 * C              32     -0.00870              0.00324              0.00015         *
 * C              33     -0.00023             -0.00185              0.00014         *
 * C              34      0.00120             -0.00008              0.00015         *
 * C              35     -0.00631              0.00964              0.00018         *
 * C              36      0.00309             -0.00880              0.00018         *
 * C              37      0.00278              0.00664             -0.00002         *
 * C              38      0.00336             -0.00991              0.00024         *
 * C              39      0.00350              0.01963              0.00275         *
 * C              40     -0.01092             -0.00280              0.00044         *
 * C              41      0.01309              0.03187             -0.01759         *
 * C              42      0.01033              0.01525              0.00057         *
 * C              43      0.04007             -0.02053             -0.01758         *
 * C              44      0.01706              0.00928              0.00053         *
 * C              45      0.02368             -0.01542              0.00260         *
 * C              46     -0.00075              0.00554              0.00041         *
 * C              47      0.00609              0.00500              0.00001         *
 * C              48     -0.00757              0.01241              0.00024         *
 * C              49      0.00320              0.00245              0.00014         *
 * C              50     -0.00184              0.00430              0.00017         *
 * C              51      0.00896              0.00294              0.00014         *
 * C              52     -0.00816              0.00539              0.00015         *
 * C              53     -0.00253              0.01166              0.00014         *
 * C              54     -0.00053              0.00035              0.00018         *
 * C              55     -0.00117              0.00805              0.00030         *
 * C              56      0.00121             -0.00628              0.00026         *
 * C              57      0.00259              0.00520             -0.00014         *
 * C              58      0.00189              0.00150              0.00025         *
 * C              59      0.00275              0.03675             -0.01265         *
 * C              60     -0.00464              0.01300              0.00762         *
 * C              61     -0.00385              0.00794              0.09562         *
 * C              62     -0.03861             -0.01072             -0.02397         *
 * C              63      0.03217             -0.02066             -0.01131         *
 * C              64      0.00057              0.00110              0.00814         *
 * C              65      0.00655             -0.00321             -0.00014         *
 * C              66     -0.00477              0.00267              0.00018         *
 * C              67     -0.00013              0.00191              0.00029         *
 * C              68     -0.00259             -0.00882              0.00025         *
 * C              69      0.00079              0.00536              0.00012         *
 * C              70     -0.01057              0.00264              0.00014         *
 * C              71      0.00187              0.00544              0.00013         *
 * C              72      0.00601             -0.00632              0.00014         *
 * C              73      0.00665              0.00376              0.00016         *
 * C              74     -0.00628             -0.00604              0.00014         *
 * C              75      0.00469             -0.00614              0.00012         *
 * C              76     -0.00066             -0.00071              0.00025         *
 * C              77     -0.00138              0.01318              0.00437         *
 * C              78     -0.01810              0.00619              0.00119         *
 * C              79     -0.03769             -0.02066             -0.01293         *
 * C              80      0.03442             -0.01736             -0.03310         *
 * C              81     -0.03995             -0.01800             -0.01161         *
 * C              82      0.00296              0.02734             -0.03516         *
 * C              83     -0.00264             -0.00374              0.00404         *
 * C              84     -0.00418             -0.01132              0.00127         *
 * C              85     -0.00672             -0.00421              0.00013         *
 * C              86     -0.00137              0.00074              0.00026         *
 * C              87      0.00657             -0.00067              0.00016         *
 * C              88      0.00033             -0.00409              0.00013         *
 * C              89     -0.00990              0.00767              0.00015         *
 * C              90     -0.00301             -0.00280              0.00015         *
 * C              91     -0.00097              0.00134              0.00015         *
 * C              92     -0.00234             -0.00202              0.00015         *
 * C              93      0.00271              0.00208              0.00021         *
 * C              94     -0.00559              0.00004              0.00018         *
 * C              95      0.00524             -0.00134              0.00013         *
 * C              96     -0.00131              0.00517             -0.00041         *
 * C              97     -0.00684             -0.00388             -0.00010         *
 * C              98     -0.00372             -0.00226              0.00085         *
 * C              99     -0.02110             -0.01856              0.00212         *
 * C             100      0.00756              0.00120              0.00948         *
 * C             101      0.00024              0.00214             -0.00007         *
 * C             102     -0.00281             -0.01801              0.00098         *
 * C             103     -0.00509              0.00518              0.00014         *
 * C             104      0.00249             -0.00809             -0.00041         *
 * C             105      0.00263             -0.00080              0.00021         *
 * C             106     -0.00807              0.00493              0.00018         *
 * C             107     -0.00058              0.00424              0.00016         *
 * C             108      0.00911             -0.00954              0.00014         *
 * C             109      0.00498              0.00237              0.00015         *
 * C             110      0.00198             -0.01183              0.00015         *
 * C             111      0.00718             -0.00753              0.00015         *
 * C             112     -0.00080             -0.00035              0.00012         *
 * C             113      0.00992             -0.00699              0.00016         *
 * C             114     -0.00507             -0.00021              0.00018         *
 * C             115     -0.00880             -0.00129              0.00027         *
 * C             116     -0.00168             -0.00003              0.00031         *
 * C             117     -0.00682             -0.01062              0.00001         *
 * C             118      0.00324              0.00124              0.00018         *
 * C             119     -0.00264             -0.00408              0.00002         *
 * C             120     -0.00030              0.00223              0.00014         *
 * C             121     -0.00533             -0.00066              0.00030         *
 * C             122      0.00269             -0.00753              0.00031         *
 * C             123     -0.01006             -0.00295              0.00016         *
 * C             124      0.00494             -0.00266              0.00018         *
 * C             125     -0.00097              0.00223              0.00016         *
 * C             126     -0.00141             -0.00112              0.00012         *
 * C             127     -0.00025              0.00717              0.00015         *
 * C             128     -0.00473             -0.00531              0.00015         *
 * C             129     -0.01285             -0.00269              0.00015         *
 * C             130      0.00457              0.00245              0.00014         *
 * C             131     -0.01120              0.00232              0.00015         *
 * C             132      0.00273              0.00883              0.00014         *
 * C             133      0.00257             -0.00711              0.00011         *
 * C             134      0.00523              0.00149              0.00013         *
 * C             135      0.00157              0.00182              0.00014         *
 * C             136      0.00496             -0.00013              0.00023         *
 * C             137     -0.00106             -0.00974              0.00015         *
 * C             138      0.00296              0.00980              0.00025         *
 * C             139      0.00005             -0.00963              0.00014         *
 * C             140      0.00089             -0.00201              0.00023         *
 * C             141     -0.00942              0.00562              0.00014         *
 * C             142      0.00803             -0.00054              0.00013         *
 * C             143     -0.00383              0.00163              0.00015         *
 * C             144      0.00599             -0.00237              0.00014         *
 * C             145     -0.00976             -0.00382              0.00017         *
 * C             146      0.00841             -0.00467              0.00015         *
 * C             147      0.00018             -0.00580              0.00023         *
 * C             148      0.01064             -0.00467              0.00012         *
 * C             149      0.00257             -0.00540              0.00017         *
 * C             150      0.00807             -0.00186              0.00015         *
 * C             151     -0.00555              0.00149              0.00012         *
 * C             152      0.00202             -0.00117              0.00015         *
 * C             153      0.00106             -0.00035              0.00014         *
 * C             154     -0.00553              0.00310              0.00015         *
 * C             155      0.00448             -0.00531              0.00014         *
 * C             156     -0.00621             -0.00090              0.00017         *
 * C             157     -0.00318              0.00193              0.00014         *
 * C             158     -0.00230             -0.00017              0.00017         *
 * C             159      0.00389              0.00530              0.00014         *
 * C             160     -0.00317              0.00519              0.00014         *
 * C             161     -0.00860              0.00611              0.00014         *
 * C             162      0.00481             -0.00436              0.00015         *
 *                                                                                  *
 ************************************************************************************
 LBFGS: finished iteration     0 with enthalpy= -2.62082287E+004 eV
  
 +-----------+-----------------+-----------------+------------+-----+ <-- LBFGS
 | Parameter |      value      |    tolerance    |    units   | OK? | <-- LBFGS
 +-----------+-----------------+-----------------+------------+-----+ <-- LBFGS
 |  dE/ion   |   0.000000E+000 |   2.000000E-005 |         eV | No  | <-- LBFGS
 |  |F|max   |   9.602271E-002 |   1.000000E-002 |       eV/A | No  | <-- LBFGS
 |  |dR|max  |   0.000000E+000 |   1.000000E-003 |          A | No  | <-- LBFGS
 +-----------+-----------------+-----------------+------------+-----+ <-- LBFGS
  

================================================================================
 Starting LBFGS iteration          1 ...
================================================================================
  
 +------------+-------------+-------------+-----------------+ <-- min LBFGS
 |    Step    |   lambda    |   F.delta'  |    enthalpy     | <-- min LBFGS
 +------------+-------------+-------------+-----------------+ <-- min LBFGS
 |  previous  |    0.000000 |    0.145128 |   -26208.228746 | <-- min LBFGS
 +------------+-------------+-------------+-----------------+ <-- min LBFGS
  

--------------------------------------------------------------------------------
 LBFGS: starting iteration         1 with trial guess (lambda=  1.000000)
--------------------------------------------------------------------------------
 
                           -------------------------------
                                     Cell Contents
                           -------------------------------
 
            xxxxxxxxxxxxxxxxxxxxxxxxxxxxxxxxxxxxxxxxxxxxxxxxxxxxxxxxxxxxxxxxx
            x  Element         Atom        Fractional coordinates of atoms  x
            x                 Number           u          v          w      x
            x---------------------------------------------------------------x
            x  H                 1         0.400857   0.365643   0.649612   x
            x  C                 1         0.073930   0.036866   0.500000   x
            x  C                 2        -0.000027  -0.000053   0.500000   x
            x  C                 3         0.073775   0.147901   0.500000   x
            x  C                 4        -0.000198   0.110893   0.500000   x
            x  C                 5         0.073712   0.259008   0.500000   x
            x  C                 6        -0.000260   0.221972   0.500000   x
            x  C                 7         0.073730   0.370177   0.500000   x
            x  C                 8        -0.000238   0.333141   0.500000   x
            x  C                 9         0.073777   0.481377   0.500000   x
            x  C                10        -0.000188   0.444339   0.500000   x
            x  C                11         0.073832   0.592589   0.500000   x
            x  C                12        -0.000132   0.555542   0.500000   x
            x  C                13         0.073881   0.703801   0.500000   x
            x  C                14        -0.000089   0.666739   0.500000   x
            x  C                15         0.073911   0.814994   0.500000   x
            x  C                16        -0.000072   0.777899   0.500000   x
            x  C                17         0.073890   0.926021   0.500000   x
            x  C                18        -0.000109   0.888987   0.500000   x
            x  C                19         0.184943   0.036714   0.500000   x
            x  C                20         0.110928  -0.000181   0.500000   x
            x  C                21         0.184930   0.147878   0.500000   x
            x  C                22         0.110843   0.110880   0.500000   x
            x  C                23         0.184879   0.259029   0.500002   x
            x  C                24         0.110756   0.221972   0.500000   x
            x  C                25         0.184861   0.370189   0.500000   x
            x  C                26         0.110732   0.333105   0.500000   x
            x  C                27         0.184892   0.481385   0.500000   x
            x  C                28         0.110761   0.444285   0.500000   x
            x  C                29         0.184948   0.592598   0.500000   x
            x  C                30         0.110812   0.555495   0.500000   x
            x  C                31         0.185000   0.703818   0.500000   x
            x  C                32         0.110869   0.666710   0.500000   x
            x  C                33         0.185040   0.815011   0.500000   x
            x  C                34         0.110908   0.777919   0.500000   x
            x  C                35         0.185010   0.926003   0.500000   x
            x  C                36         0.110932   0.889059   0.500000   x
            x  C                37         0.296044   0.036675   0.500000   x
            x  C                38         0.221988  -0.000264   0.500000   x
            x  C                39         0.296076   0.147839   0.500001   x
            x  C                40         0.221957   0.110778   0.500000   x
            x  C                41         0.296101   0.259065   0.499993   x
            x  C                42         0.221969   0.221986   0.500000   x
            x  C                43         0.296103   0.370233   0.499993   x
            x  C                44         0.221949   0.333153   0.500000   x
            x  C                45         0.296116   0.481436   0.500001   x
            x  C                46         0.221949   0.444331   0.500000   x
            x  C                47         0.296161   0.592650   0.500000   x
            x  C                48         0.221997   0.555534   0.500000   x
            x  C                49         0.296210   0.703870   0.500000   x
            x  C                50         0.222048   0.666752   0.500000   x
            x  C                51         0.296251   0.815060   0.500000   x
            x  C                52         0.222100   0.777963   0.500000   x
            x  C                53         0.296201   0.926025   0.500000   x
            x  C                54         0.222119   0.889078   0.500000   x
            x  C                55         0.407211   0.036691   0.500000   x
            x  C                56         0.333140  -0.000252   0.500000   x
            x  C                57         0.407232   0.147823   0.500000   x
            x  C                58         0.333098   0.110739   0.500000   x
            x  C                59         0.407290   0.259067   0.499995   x
            x  C                60         0.333140   0.221965   0.500003   x
            x  C                61         0.407320   0.370271   0.500039   x
            x  C                62         0.333155   0.333176   0.499990   x
            x  C                63         0.407346   0.481470   0.499995   x
            x  C                64         0.333180   0.444381   0.500003   x
            x  C                65         0.407382   0.592698   0.500000   x
            x  C                66         0.333220   0.555592   0.500000   x
            x  C                67         0.407431   0.703921   0.500000   x
            x  C                68         0.333268   0.666809   0.500000   x
            x  C                69         0.407471   0.815113   0.500000   x
            x  C                70         0.333317   0.778014   0.500000   x
            x  C                71         0.407415   0.926074   0.500000   x
            x  C                72         0.333329   0.889127   0.500000   x
            x  C                73         0.518413   0.036741   0.500000   x
            x  C                74         0.444337  -0.000210   0.500000   x
            x  C                75         0.518430   0.147859   0.500000   x
            x  C                76         0.444277   0.110758   0.500000   x
            x  C                77         0.518479   0.259073   0.500002   x
            x  C                78         0.444326   0.221972   0.500000   x
            x  C                79         0.518509   0.370290   0.499995   x
            x  C                80         0.444378   0.333194   0.499986   x
            x  C                81         0.518541   0.481502   0.499995   x
            x  C                82         0.444408   0.444423   0.499986   x
            x  C                83         0.518590   0.592729   0.500002   x
            x  C                84         0.444436   0.555623   0.500001   x
            x  C                85         0.518640   0.703960   0.500000   x
            x  C                86         0.444481   0.666849   0.500000   x
            x  C                87         0.518679   0.815167   0.500000   x
            x  C                88         0.444531   0.778068   0.500000   x
            x  C                89         0.518627   0.926132   0.500000   x
            x  C                90         0.444549   0.889181   0.500000   x
            x  C                91         0.629629   0.036802   0.500000   x
            x  C                92         0.555546  -0.000151   0.500000   x
            x  C                93         0.629642   0.147910   0.500000   x
            x  C                94         0.555489   0.110811   0.500000   x
            x  C                95         0.629692   0.259119   0.500000   x
            x  C                96         0.555531   0.222003   0.500000   x
            x  C                97         0.629746   0.370339   0.500000   x
            x  C                98         0.555580   0.333231   0.500000   x
            x  C                99         0.629770   0.481543   0.500001   x
            x  C               100         0.555623   0.444449   0.500004   x
            x  C               101         0.629790   0.592742   0.500000   x
            x  C               102         0.555643   0.555651   0.500000   x
            x  C               103         0.629821   0.703964   0.500000   x
            x  C               104         0.555679   0.666876   0.500000   x
            x  C               105         0.629862   0.815188   0.500000   x
            x  C               106         0.555729   0.778103   0.500000   x
            x  C               107         0.629821   0.926183   0.500000   x
            x  C               108         0.555750   0.889235   0.500000   x
            x  C               109         0.740842   0.036850   0.500000   x
            x  C               110         0.666760  -0.000093   0.500000   x
            x  C               111         0.740860   0.147968   0.500000   x
            x  C               112         0.666707   0.110868   0.500000   x
            x  C               113         0.740911   0.259179   0.500000   x
            x  C               114         0.666749   0.222058   0.500000   x
            x  C               115         0.740969   0.370392   0.500000   x
            x  C               116         0.666810   0.333279   0.500000   x
            x  C               117         0.741006   0.481593   0.500000   x
            x  C               118         0.666853   0.444490   0.500000   x
            x  C               119         0.741016   0.592776   0.500000   x
            x  C               120         0.666869   0.555691   0.500000   x
            x  C               121         0.740997   0.703941   0.500000   x
            x  C               122         0.666867   0.666877   0.500000   x
            x  C               123         0.741009   0.815151   0.500000   x
            x  C               124         0.666892   0.778100   0.500000   x
            x  C               125         0.740973   0.926192   0.500000   x
            x  C               126         0.666919   0.889259   0.500000   x
            x  C               127         0.852030   0.036872   0.500000   x
            x  C               128         0.777957  -0.000070   0.500000   x
            x  C               129         0.852058   0.148011   0.500000   x
            x  C               130         0.777923   0.110921   0.500000   x
            x  C               131         0.852098   0.259219   0.500000   x
            x  C               132         0.777963   0.222113   0.500000   x
            x  C               133         0.852151   0.370436   0.500000   x
            x  C               134         0.778022   0.333331   0.500000   x
            x  C               135         0.852202   0.481640   0.500000   x
            x  C               136         0.778071   0.444541   0.500000   x
            x  C               137         0.852229   0.592825   0.500000   x
            x  C               138         0.778103   0.555736   0.500000   x
            x  C               139         0.852208   0.703958   0.500000   x
            x  C               140         0.778088   0.666900   0.500000   x
            x  C               141         0.852119   0.815040   0.500000   x
            x  C               142         0.778033   0.778049   0.500000   x
            x  C               143         0.852036   0.926109   0.500000   x
            x  C               144         0.778021   0.889217   0.500000   x
            x  C               145         0.963069   0.036940   0.500000   x
            x  C               146         0.889072  -0.000090   0.500000   x
            x  C               147         0.963037   0.148026   0.500000   x
            x  C               148         0.889054   0.110939   0.500000   x
            x  C               149         0.963051   0.259190   0.500000   x
            x  C               150         0.889084   0.222130   0.500000   x
            x  C               151         0.963098   0.370383   0.500000   x
            x  C               152         0.889132   0.333341   0.500000   x
            x  C               153         0.963151   0.481587   0.500000   x
            x  C               154         0.889189   0.444553   0.500000   x
            x  C               155         0.963201   0.592786   0.500000   x
            x  C               156         0.889237   0.555752   0.500000   x
            x  C               157         0.963221   0.703953   0.500000   x
            x  C               158         0.889249   0.666921   0.500000   x
            x  C               159         0.963162   0.815030   0.500000   x
            x  C               160         0.889189   0.778020   0.500000   x
            x  C               161         0.962987   0.925981   0.500000   x
            x  C               162         0.889030   0.889060   0.500000   x
            xxxxxxxxxxxxxxxxxxxxxxxxxxxxxxxxxxxxxxxxxxxxxxxxxxxxxxxxxxxxxxxxx
 
 
------------------------------------------------------------------------ <-- SCF
SCF loop      Energy           Fermi           Energy gain       Timer   <-- SCF
                               energy          per atom          (sec)   <-- SCF
------------------------------------------------------------------------ <-- SCF
Initial  -2.61942642E+004  0.00000000E+000                      1224.49  <-- SCF
      1  -2.61948095E+004 -2.51803936E+000   3.34544013E-003    1255.67  <-- SCF
      2  -2.61948095E+004 -2.51803938E+000   4.87878069E-008    1281.43  <-- SCF
      3  -2.61948095E+004 -2.51795494E+000  -5.46443267E-010    1306.79  <-- SCF
      4  -2.61948095E+004 -2.51861985E+000   2.53418740E-007    1332.66  <-- SCF
      5  -2.61948095E+004 -2.51823922E+000  -1.92019143E-007    1358.94  <-- SCF
------------------------------------------------------------------------ <-- SCF
 
Integrated Spin Density     =   -0.901712E-02 hbar/2                        
Integrated |Spin Density|   =    0.142781E-01 hbar/2                        
 
Final energy, E             =  -26194.26252201     eV
Final free energy (E-TS)    =  -26194.80948673     eV
(energies not corrected for finite basis set)
 
NB est. 0K energy (E-0.5TS)      =  -26194.53600437     eV
 
(SEDC) Total Energy Correction : -0.134196E+02 eV

Dispersion corrected final energy*, Ecor          =  -26207.68208603     eV
Dispersion corrected final free energy* (Ecor-TS) =  -26208.22905075     eV
NB dispersion corrected est. 0K energy* (Ecor-0.5TS) =  -26207.95556839     eV
 
 ************************************** Forces **************************************
 *                                                                                  *
 *                           Cartesian components (eV/A)                            *
 * -------------------------------------------------------------------------------- *
 *                         x                    y                    z              *
 *                                                                                  *
 * H               1     -0.00047              0.00071              0.00821         *
 * C               1      0.00188             -0.00179              0.00033         *
 * C               2      0.00200             -0.00166              0.00015         *
 * C               3     -0.00144              0.00451              0.00006         *
 * C               4     -0.00041              0.00445              0.00013         *
 * C               5      0.00429             -0.00048              0.00006         *
 * C               6      0.00242              0.00175              0.00014         *
 * C               7      0.00104             -0.00054              0.00030         *
 * C               8      0.00243              0.00248              0.00014         *
 * C               9     -0.00076             -0.00206              0.00014         *
 * C              10      0.00319             -0.00002              0.00015         *
 * C              11      0.00289             -0.00044              0.00013         *
 * C              12     -0.00330              0.00118              0.00014         *
 * C              13     -0.00084              0.00087              0.00013         *
 * C              14      0.00103             -0.00148              0.00014         *
 * C              15     -0.00120              0.00210              0.00013         *
 * C              16     -0.00352              0.00201              0.00014         *
 * C              17     -0.00204              0.00014              0.00015         *
 * C              18      0.00437             -0.00078              0.00014         *
 * C              19     -0.00101              0.00658             -0.00006         *
 * C              20     -0.00390              0.00297              0.00020         *
 * C              21      0.00267              0.00532              0.00025         *
 * C              22      0.00562              0.00335              0.00039         *
 * C              23      0.00243              0.00231              0.00472         *
 * C              24      0.00476              0.00219              0.00031         *
 * C              25      0.00533              0.00165              0.00023         *
 * C              26      0.00270              0.00130              0.00040         *
 * C              27      0.00318             -0.00271             -0.00006         *
 * C              28     -0.00105              0.00201              0.00020         *
 * C              29     -0.00216             -0.00154              0.00017         *
 * C              30      0.00116              0.00023              0.00016         *
 * C              31     -0.00138             -0.00237              0.00013         *
 * C              32     -0.00358             -0.00058              0.00014         *
 * C              33     -0.00116              0.00011              0.00013         *
 * C              34     -0.00029              0.00042              0.00014         *
 * C              35     -0.00289              0.00260              0.00018         *
 * C              36     -0.00050             -0.00236              0.00016         *
 * C              37      0.00154              0.00245             -0.00004         *
 * C              38      0.00166             -0.00031              0.00023         *
 * C              39      0.00030              0.01573              0.00345         *
 * C              40     -0.00277              0.00286              0.00050         *
 * C              41      0.00362              0.01615             -0.01612         *
 * C              42      0.00913              0.01285             -0.00067         *
 * C              43      0.01655             -0.00926             -0.01604         *
 * C              44      0.01376              0.00422             -0.00074         *
 * C              45      0.01542             -0.00812              0.00335         *
 * C              46      0.00426             -0.00009              0.00045         *
 * C              47      0.00109              0.00159             -0.00003         *
 * C              48     -0.00333              0.00475              0.00022         *
 * C              49      0.00014              0.00096              0.00015         *
 * C              50     -0.00043              0.00193              0.00015         *
 * C              51      0.00161              0.00177              0.00014         *
 * C              52     -0.00308              0.00165              0.00014         *
 * C              53     -0.00076              0.00333              0.00015         *
 * C              54     -0.00133              0.00362              0.00015         *
 * C              55     -0.00133              0.00351              0.00029         *
 * C              56      0.00067              0.00095              0.00022         *
 * C              57     -0.00047              0.00584              0.00024         *
 * C              58      0.00102              0.00566              0.00037         *
 * C              59      0.00201              0.01678             -0.01254         *
 * C              60      0.00035              0.01859              0.00552         *
 * C              61     -0.00262              0.00281              0.07458         *
 * C              62     -0.00778              0.00053             -0.01652         *
 * C              63      0.01322             -0.00848             -0.01151         *
 * C              64      0.01426             -0.00590              0.00604         *
 * C              65      0.00174             -0.00469              0.00026         *
 * C              66      0.00233             -0.00138              0.00031         *
 * C              67     -0.00163             -0.00012              0.00028         *
 * C              68     -0.00023             -0.00281              0.00021         *
 * C              69     -0.00077              0.00165              0.00012         *
 * C              70     -0.00318              0.00216              0.00014         *
 * C              71     -0.00066              0.00136              0.00012         *
 * C              72      0.00422             -0.00053              0.00014         *
 * C              73      0.00076              0.00102              0.00015         *
 * C              74     -0.00232              0.00037              0.00015         *
 * C              75      0.00128             -0.00171              0.00009         *
 * C              76      0.00046              0.00169              0.00034         *
 * C              77     -0.00340              0.00732              0.00380         *
 * C              78     -0.01130              0.00917              0.00018         *
 * C              79     -0.01438             -0.01019             -0.01275         *
 * C              80      0.00721             -0.00180             -0.02336         *
 * C              81     -0.01647             -0.00782             -0.01177         *
 * C              82      0.00054              0.00294             -0.02497         *
 * C              83     -0.00152             -0.00693              0.00351         *
 * C              84      0.00043             -0.01165              0.00032         *
 * C              85     -0.00456             -0.00286              0.00010         *
 * C              86     -0.00048             -0.00032              0.00034         *
 * C              87      0.00282             -0.00115              0.00016         *
 * C              88     -0.00013             -0.00165              0.00014         *
 * C              89     -0.00390              0.00092              0.00015         *
 * C              90     -0.00145              0.00037              0.00014         *
 * C              91      0.00041             -0.00151              0.00014         *
 * C              92     -0.00104              0.00056              0.00014         *
 * C              93      0.00013              0.00173              0.00019         *
 * C              94     -0.00091             -0.00004              0.00014         *
 * C              95      0.00151             -0.00060              0.00010         *
 * C              96     -0.00045              0.00333              0.00013         *
 * C              97     -0.00535             -0.00205              0.00027         *
 * C              98     -0.00824             -0.00034             -0.00019         *
 * C              99     -0.01319             -0.01060              0.00305         *
 * C             100     -0.00951             -0.00734              0.00742         *
 * C             101     -0.00063             -0.00361              0.00031         *
 * C             102     -0.00564             -0.01420              0.00002         *
 * C             103     -0.00213             -0.00039              0.00010         *
 * C             104     -0.00022             -0.00492              0.00011         *
 * C             105      0.00039             -0.00054              0.00019         *
 * C             106     -0.00242              0.00094              0.00014         *
 * C             107     -0.00008             -0.00129              0.00014         *
 * C             108      0.00274             -0.00297              0.00014         *
 * C             109      0.00242             -0.00142              0.00014         *
 * C             110      0.00152             -0.00368              0.00014         *
 * C             111      0.00431             -0.00323              0.00014         *
 * C             112      0.00170             -0.00025              0.00012         *
 * C             113      0.00498             -0.00268              0.00016         *
 * C             114      0.00027             -0.00125              0.00013         *
 * C             115     -0.00407             -0.00063              0.00027         *
 * C             116     -0.00307             -0.00055              0.00039         *
 * C             117     -0.00315             -0.00434             -0.00003         *
 * C             118     -0.00219             -0.00323              0.00024         *
 * C             119     -0.00192             -0.00263             -0.00003         *
 * C             120     -0.00319             -0.00265              0.00021         *
 * C             121     -0.00133             -0.00155              0.00029         *
 * C             122     -0.00131             -0.00336              0.00039         *
 * C             123     -0.00268             -0.00259              0.00015         *
 * C             124      0.00085             -0.00177              0.00014         *
 * C             125     -0.00027             -0.00094              0.00014         *
 * C             126      0.00047             -0.00105              0.00012         *
 * C             127      0.00128              0.00196              0.00014         *
[...]
             C 55  -- C 72                  -0.10         0.00          2.84108
             C 109 -- C 126                 -0.10         0.00          2.84137
             C 37  -- C 54                  -0.10         0.00          2.84175
             C 30  -- C 153                 -0.10         0.00          2.84271
             C 127 -- C 144                 -0.10         0.00          2.84271
             C 10  -- C 133                 -0.10         0.00          2.84278
             C 32  -- C 155                 -0.10         0.00          2.84286
             C 12  -- C 135                 -0.10         0.00          2.84287
             C 8   -- C 131                 -0.10         0.00          2.84288
             C 28  -- C 151                 -0.10         0.00          2.84292
             C 19  -- C 36                  -0.10         0.00          2.84305
             C 14  -- C 137                 -0.10         0.00          2.84324
             C 34  -- C 157                 -0.10         0.00          2.84329
             C 6   -- C 129                 -0.10         0.00          2.84338
             C 26  -- C 149                 -0.10         0.00          2.84343
             C 16  -- C 139                 -0.10         0.00          2.84391
             C 24  -- C 147                 -0.10         0.00          2.84426
             C 36  -- C 159                 -0.10         0.00          2.84488
             C 4   -- C 127                 -0.10         0.00          2.84500
             C 18  -- C 141                 -0.10         0.00          2.84506
             C 22  -- C 145                 -0.10         0.00          2.84527
             C 2   -- C 17                  -0.10         0.00          2.84610
             C 146 -- C 161                 -0.10         0.00          2.84613
             C 145 -- C 162                 -0.10         0.00          2.84699
             C 1   -- C 18                  -0.10         0.00          2.84713
             C 20  -- C 35                  -0.10         0.00          2.84716
             C 128 -- C 143                 -0.10         0.00          2.84722
             C 110 -- C 125                 -0.10         0.00          2.84780
             C 38  -- C 53                  -0.10         0.00          2.84787
             C 2   -- C 143                 -0.10         0.00          2.84819
             C 20  -- C 161                 -0.10         0.00          2.84821
             C 92  -- C 107                 -0.10         0.00          2.84822
             C 56  -- C 71                  -0.10         0.00          2.84830
             C 74  -- C 89                  -0.10         0.00          2.84838
             C 2   -- C 3                   -0.10         0.00          2.84855
             C 160 -- C 161                 -0.10         0.00          2.84856
             C 15  -- C 18                  -0.10         0.00          2.84936
             C 145 -- C 148                 -0.10         0.00          2.84938
             C 123 -- C 162                 -0.10         0.00          2.84990
             C 1   -- C 40                  -0.10         0.00          2.85009
             C 147 -- C 150                 -0.10         0.00          2.85026
             C 13  -- C 16                  -0.10         0.00          2.85028
             C 92  -- C 93                  -0.10         0.00          2.85043
             C 110 -- C 111                 -0.10         0.00          2.85049
             C 142 -- C 143                 -0.10         0.00          2.85049
             C 70  -- C 71                  -0.10         0.00          2.85053
             C 88  -- C 89                  -0.10         0.00          2.85056
             C 52  -- C 53                  -0.10         0.00          2.85056
             C 74  -- C 75                  -0.10         0.00          2.85063
             C 149 -- C 152                 -0.10         0.00          2.85067
             C 11  -- C 14                  -0.10         0.00          2.85072
             C 106 -- C 107                 -0.10         0.00          2.85081
             C 153 -- C 156                 -0.10         0.00          2.85082
             C 20  -- C 21                  -0.10         0.00          2.85083
             C 128 -- C 129                 -0.10         0.00          2.85084
             C 9   -- C 12                  -0.10         0.00          2.85085
             C 151 -- C 154                 -0.10         0.00          2.85085
             C 155 -- C 158                 -0.10         0.00          2.85090
             C 5   -- C 8                   -0.10         0.00          2.85098
             C 7   -- C 10                  -0.10         0.00          2.85102
             C 34  -- C 35                  -0.10         0.00          2.85104
             C 56  -- C 57                  -0.10         0.00          2.85107
             C 124 -- C 125                 -0.10         0.00          2.85115
             C 3   -- C 6                   -0.10         0.00          2.85117
             C 17  -- C 38                  -0.10         0.00          2.85119
             C 157 -- C 160                 -0.10         0.00          2.85122
             C 125 -- C 146                 -0.10         0.00          2.85123
             C 4   -- C 5                   -0.10         0.00          2.85146
             C 158 -- C 159                 -0.10         0.00          2.85155
             C 146 -- C 147                 -0.10         0.00          2.85163
             C 71  -- C 92                  -0.10         0.00          2.85171
             C 16  -- C 17                  -0.10         0.00          2.85174
             C 53  -- C 74                  -0.10         0.00          2.85178
             C 89  -- C 110                 -0.10         0.00          2.85184
             C 35  -- C 56                  -0.10         0.00          2.85186
             C 107 -- C 128                 -0.10         0.00          2.85196
             C 38  -- C 39                  -0.10         0.00          2.85207
             C 1   -- C 4                   -0.10         0.00          2.85211
             C 22  -- C 23                  -0.10         0.00          2.85211
             C 87  -- C 90                  -0.10         0.00          2.85216
             C 127 -- C 130                 -0.10         0.00          2.85217
             C 33  -- C 36                  -0.10         0.00          2.85217
             C 159 -- C 162                 -0.10         0.00          2.85221
             C 19  -- C 58                  -0.10         0.00          2.85221
             C 109 -- C 112                 -0.10         0.00          2.85222
             C 51  -- C 54                  -0.10         0.00          2.85222
             C 140 -- C 141                 -0.10         0.00          2.85223
             C 91  -- C 94                  -0.10         0.00          2.85225
             C 69  -- C 72                  -0.10         0.00          2.85228
             C 105 -- C 144                 -0.10         0.00          2.85233
             C 105 -- C 108                 -0.10         0.00          2.85235
             C 73  -- C 76                  -0.10         0.00          2.85244
             C 55  -- C 58                  -0.10         0.00          2.85257
             C 37  -- C 40                  -0.10         0.00          2.85288
             C 133 -- C 136                 -0.10         0.00          2.85291
             C 131 -- C 134                 -0.10         0.00          2.85293
             C 129 -- C 132                 -0.10         0.00          2.85295
             C 123 -- C 126                 -0.10         0.00          2.85295
             C 29  -- C 32                  -0.10         0.00          2.85297
             C 31  -- C 34                  -0.10         0.00          2.85297
             C 135 -- C 138                 -0.10         0.00          2.85305
             C 121 -- C 160                 -0.10         0.00          2.85307
             C 6   -- C 7                   -0.10         0.00          2.85311
             C 61  -- C 64                  -0.10        -0.00          2.85312
             C 81  -- C 84                  -0.10         0.00          2.85313
             C 79  -- C 82                  -0.10         0.00          2.85319
             C 42  -- C 43                  -0.10        -0.00          2.85320
             C 156 -- C 157                 -0.10         0.00          2.85321
             C 27  -- C 30                  -0.10         0.00          2.85322
             C 24  -- C 25                  -0.10         0.00          2.85322
             C 41  -- C 44                  -0.10         0.00          2.85325
             C 111 -- C 114                 -0.10         0.00          2.85327
             C 49  -- C 52                  -0.10         0.00          2.85328
             C 99  -- C 102                 -0.10         0.00          2.85331
             C 59  -- C 62                  -0.10         0.00          2.85334
             C 21  -- C 60                  -0.10         0.00          2.85334
             C 67  -- C 70                  -0.10         0.00          2.85335
             C 25  -- C 28                  -0.10         0.00          2.85338
             C 15  -- C 54                  -0.10         0.00          2.85339
             C 137 -- C 140                 -0.10         0.00          2.85340
             C 109 -- C 148                 -0.10         0.00          2.85342
             C 11  -- C 50                  -0.10         0.00          2.85343
             C 3   -- C 42                  -0.10         0.00          2.85345
             C 23  -- C 26                  -0.10         0.00          2.85347
             C 85  -- C 88                  -0.10         0.00          2.85348
             C 77  -- C 80                  -0.10         0.00          2.85349
             C 13  -- C 52                  -0.10         0.00          2.85350
             C 113 -- C 152                 -0.10         0.00          2.85350
             C 9   -- C 48                  -0.10         0.00          2.85351
             C 39  -- C 78                  -0.10         0.00          2.85351
             C 103 -- C 142                 -0.10         0.00          2.85352
             C 93  -- C 96                  -0.10         0.00          2.85355
             C 113 -- C 116                 -0.10         0.00          2.85358
             C 111 -- C 150                 -0.10         0.00          2.85358
             C 39  -- C 42                  -0.10         0.00          2.85359
             C 103 -- C 106                 -0.10         0.00          2.85362
             C 37  -- C 76                  -0.10         0.00          2.85363
             C 138 -- C 139                 -0.10         0.00          2.85364
             C 117 -- C 120                 -0.10         0.00          2.85366
             C 115 -- C 118                 -0.10         0.00          2.85366
             C 115 -- C 154                 -0.10         0.00          2.85366
             C 8   -- C 9                   -0.10         0.00          2.85370
             C 154 -- C 155                 -0.10         0.00          2.85371
             C 47  -- C 50                  -0.10         0.00          2.85373
             C 83  -- C 86                  -0.10         0.00          2.85374
             C 97  -- C 100                 -0.10         0.00          2.85377
             C 7   -- C 46                  -0.10         0.00          2.85380
             C 41  -- C 80                  -0.10         0.00          2.85382
             C 101 -- C 104                 -0.10         0.00          2.85383
             C 57  -- C 60                  -0.10         0.00          2.85384
             C 75  -- C 78                  -0.10         0.00          2.85386
             C 87  -- C 126                 -0.10         0.00          2.85390
             C 65  -- C 68                  -0.10         0.00          2.85390
             C 117 -- C 156                 -0.10         0.00          2.85397
             C 119 -- C 122                 -0.10         0.00          2.85398
             C 10  -- C 11                  -0.10         0.00          2.85398
             C 95  -- C 98                  -0.10         0.00          2.85400
             C 152 -- C 153                 -0.10         0.00          2.85400
             C 119 -- C 158                 -0.10         0.00          2.85402
             C 21  -- C 24                  -0.10         0.00          2.85403
             C 44  -- C 45                  -0.10         0.00          2.85404
             C 59  -- C 98                  -0.10         0.00          2.85410
             C 19  -- C 22                  -0.10         0.00          2.85411
             C 5   -- C 44                  -0.10         0.00          2.85413
             C 148 -- C 149                 -0.10         0.00          2.85414
             C 62  -- C 63                  -0.10         0.00          2.85415
             C 85  -- C 124                 -0.10         0.00          2.85415
             C 150 -- C 151                 -0.10         0.00          2.85418
             C 61  -- C 100                 -0.10        -0.00          2.85418
             C 60  -- C 61                  -0.10        -0.00          2.85419
             C 63  -- C 102                 -0.10         0.00          2.85422
             C 14  -- C 15                  -0.10         0.00          2.85424
             C 121 -- C 124                 -0.10         0.00          2.85424
             C 12  -- C 13                  -0.10         0.00          2.85425
             C 141 -- C 144                 -0.10         0.00          2.85429
             C 43  -- C 46                  -0.10         0.00          2.85430
             C 139 -- C 142                 -0.10         0.00          2.85433
             C 63  -- C 66                  -0.10         0.00          2.85434
             C 80  -- C 81                  -0.10         0.00          2.85435
             C 43  -- C 82                  -0.10         0.00          2.85438
             C 23  -- C 62                  -0.10        -0.00          2.85438
             C 120 -- C 121                 -0.10         0.00          2.85442
             C 26  -- C 27                  -0.10         0.00          2.85448
             C 45  -- C 48                  -0.10         0.00          2.85451
             C 55  -- C 94                  -0.10         0.00          2.85454
             C 69  -- C 108                 -0.10         0.00          2.85457
             C 78  -- C 79                  -0.10         0.00          2.85459
             C 45  -- C 84                  -0.10         0.00          2.85459
             C 98  -- C 99                  -0.10         0.00          2.85459
             C 83  -- C 122                 -0.10         0.00          2.85461
             C 118 -- C 119                 -0.10         0.00          2.85462
             C 136 -- C 137                 -0.10         0.00          2.85465
             C 65  -- C 104                 -0.10         0.00          2.85466
             C 57  -- C 96                  -0.10         0.00          2.85474
             C 122 -- C 123                 -0.10         0.00          2.85476
             C 33  -- C 72                  -0.10         0.00          2.85486
             C 82  -- C 83                  -0.10         0.00          2.85493
             C 100 -- C 101                 -0.10         0.00          2.85493
             C 40  -- C 41                  -0.10         0.00          2.85495
             C 91  -- C 130                 -0.10         0.00          2.85495
             C 51  -- C 90                  -0.10         0.00          2.85496
             C 73  -- C 112                 -0.10         0.00          2.85497
             C 67  -- C 106                 -0.10         0.00          2.85498
             C 94  -- C 95                  -0.10         0.00          2.85510
             C 116 -- C 117                 -0.10         0.00          2.85510
             C 130 -- C 131                 -0.10         0.00          2.85514
             C 112 -- C 113                 -0.10         0.00          2.85516
             C 47  -- C 86                  -0.10         0.00          2.85518
             C 46  -- C 47                  -0.10         0.00          2.85518
             C 76  -- C 77                  -0.10         0.00          2.85519
             C 50  -- C 51                  -0.10         0.00          2.85520
             C 134 -- C 135                 -0.10         0.00          2.85521
             C 32  -- C 33                  -0.10         0.00          2.85523
             C 28  -- C 29                  -0.10         0.00          2.85525
             C 68  -- C 69                  -0.10         0.00          2.85527
             C 101 -- C 140                 -0.10         0.00          2.85529
             C 27  -- C 66                  -0.10         0.00          2.85530
             C 96  -- C 97                  -0.10         0.00          2.85536
             C 25  -- C 64                  -0.10         0.00          2.85538
             C 75  -- C 114                 -0.10         0.00          2.85538
             C 29  -- C 68                  -0.10         0.00          2.85538
             C 64  -- C 65                  -0.10         0.00          2.85540
             C 49  -- C 88                  -0.10         0.00          2.85540
             C 31  -- C 70                  -0.10         0.00          2.85542
             C 93  -- C 132                 -0.10         0.00          2.85548
             C 77  -- C 116                 -0.10         0.00          2.85549
             C 132 -- C 133                 -0.10         0.00          2.85552
             C 30  -- C 31                  -0.10         0.00          2.85553
             C 114 -- C 115                 -0.10         0.00          2.85555
             C 104 -- C 105                 -0.10         0.00          2.85557
             C 86  -- C 87                  -0.10         0.00          2.85557
             C 95  -- C 134                 -0.10         0.00          2.85559
             C 102 -- C 103                 -0.10         0.00          2.85564
             C 48  -- C 49                  -0.10         0.00          2.85570
             C 81  -- C 120                 -0.10         0.00          2.85572
             C 58  -- C 59                  -0.10         0.00          2.85575
             C 97  -- C 136                 -0.10         0.00          2.85583
             C 66  -- C 67                  -0.10         0.00          2.85587
             C 79  -- C 118                 -0.10         0.00          2.85597
             C 84  -- C 85                  -0.10         0.00          2.85607
             C 99  -- C 138                 -0.10        -0.00          2.85643
               H 1 -- C 61                  -0.01        -0.00          2.99444
================================================================================
 

Writing analysis data to 9x9.castep_bin

Writing model to 9x9.check
 
 A BibTeX formatted list of references used in this run has been written to 
 9x9.bib
 
Initialisation time =      4.06 s
Calculation time    =   2845.76 s
Finalisation time   =      8.26 s
Total time          =   2858.08 s
Peak Memory Use     = 1164448 kB
  
Overall parallel efficiency rating: Poor (40%)                                  
  
Data was distributed by:-
G-vector (128-way); efficiency rating: Poor (41%)                               
