 +-------------------------------------------------+
 |                                                 |
 |      CCC   AA    SSS  TTTTT  EEEEE  PPPP        |
 |     C     A  A  S       T    E      P   P       |
 |     C     AAAA   SS     T    EEE    PPPP        |
 |     C     A  A     S    T    E      P           |
 |      CCC  A  A  SSS     T    EEEEE  P           |
 |                                                 |
 +-------------------------------------------------+
 |                                                 |
 | Welcome to Academic Release CASTEP version 21.11|          
 | Ab Initio Total Energy Program                  |
 |                                                 |
 | Authors:                                        |
 | M. Segall, M. Probert, C. Pickard, P. Hasnip,   |
 | S. Clark, K. Refson, J. R. Yates, M. Payne      |
 |                                                 |
 | Contributors:                                   |
 | P. Lindan, P. Haynes, J. White, V. Milman,      |
 | N. Govind, M. Gibson, P. Tulip, V. Cocula,      |
 | B. Montanari, D. Quigley, M. Glover,            |
 | L. Bernasconi, A. Perlov, M. Plummer,           |
 | E. McNellis, J. Meyer, J. Gale, D. Jochym       |
 | J. Aarons, B. Walker, R. Gillen, D. Jones       |
 | T. Green, I. J. Bush, C. J. Armstrong,          |
 | E. J. Higgins, E. L. Brown, M. S. McFly,        |
 | J. Wilkins, B-C. Shih, P. J. P. Byrne,          |
 | R. J. Maurer, J. C. Womack, J. Dziedzic,        |
 | A. Bartok-Partay, L. LeBlanc                    |
 |                                                 |
 | Copyright (c) 2000 - 2021                       |
 |                                                 |
 |     Distributed under license from Cambridge    |
 |     Enterprise for academic use only.           |
 |                                                 |
 | Please cite                                     |
 |                                                 |
 |     "First principles methods using CASTEP"     |
 |                                                 |
 |         Zeitschrift fuer Kristallographie       |
 |           220(5-6) pp. 567-570 (2005)           |
 |                                                 |
 | S. J. Clark, M. D. Segall, C. J. Pickard,       |
 | P. J. Hasnip, M. J. Probert, K. Refson,         |
 | M. C. Payne                                     |
 |                                                 |
 |       in all publications arising from          |
 |              your use of CASTEP                 |
 |                                                 |
 +-------------------------------------------------+
 |                                                 |
 |              http://www.castep.org              |
 |                                                 |
 +-------------------------------------------------+
 
 
 
 Compiled for linux_x86_64_cray-XT on Tue, 01 Mar 2022 09:19:15 +0000
 from code version 7d4405a8a+  HEAD  Sat Nov 27 13:38:33 2021 +0000
 Compiler: Cray Fortran 12.0.3; Optimisation: fast
 MATHLIBS: LibSci (LAPACK version 3.6.1)
 FFT Lib : fftw3 version commercial-fftw-3.3.8-sse2-avx-avx2-avx2_128
 Fundamental constants values: CODATA 2014
 
 Run started: Sat, 29 Oct 2022 16:26:48 -0100
 
 Atomic calculation performed for H: 1s1
 
 Converged in 41 iterations to an ae energy of -12.488 eV
 
   ============================================================                
   | Pseudopotential Report - Date of generation 29-10-2022   |                
   ------------------------------------------------------------                
   | Element: H Ionic charge:  1.00 Level of theory: PBE      |                
   | Atomic Solver: Koelling-Harmon                           |                
   |                                                          |                
   |               Reference Electronic Structure             |                
   |         Orbital         Occupation         Energy        |                
   |            1s              1.000           -0.239        |                
   |                                                          |                
   |                 Pseudopotential Definition               |                
   |        Beta     l      e      Rc     scheme   norm       |                
   |          1      0   -0.239   0.803     qc      1         |                
   |         loc     1    0.000   0.803     pn      0         |                
   |                                                          |                
   | No charge augmentation                                   |                
   | No partial core correction                               |                
   ------------------------------------------------------------                
   | "1|0.8|14|16|19|10N(qc=8)"                               |                
   ------------------------------------------------------------                
   |      Author: Chris J. Pickard, Cambridge University      |                
   ============================================================                
 
 Atomic calculation performed for C: 1s2 2s2 2p2
 
 Converged in 54 iterations to an ae energy of -1027.632 eV
 
   ============================================================                
   | Pseudopotential Report - Date of generation 29-10-2022   |                
   ------------------------------------------------------------                
   | Element: C Ionic charge:  4.00 Level of theory: PBE      |                
   | Atomic Solver: Koelling-Harmon                           |                
   |                                                          |                
   |               Reference Electronic Structure             |                
   |         Orbital         Occupation         Energy        |                
   |            2s              2.000           -0.505        |                
   |            2p              2.000           -0.194        |                
   |                                                          |                
   |                 Pseudopotential Definition               |                
   |        Beta     l      e      Rc     scheme   norm       |                
   |          1      0   -0.505   1.201     qc      1         |                
   |         loc     1   -0.194   1.201     qc      1         |                
   |                                                          |                
   | No charge augmentation                                   |                
   | Partial core correction Rc = 0.839                       |                
   ------------------------------------------------------------                
   | "1|1.2|17|20|23|20N:21L(qc=8)"                           |                
   ------------------------------------------------------------                
   |      Author: Chris J. Pickard, Cambridge University      |                
   ============================================================                
 
 Pseudo atomic calculation performed for H 1s1
 
 Converged in 13 iterations to a total energy of -12.4790 eV
 
 Pseudo atomic calculation performed for C 2s2 2p2
 
 Converged in 18 iterations to a total energy of -152.4291 eV
 Calculation parallelised over 128 processes.
 Data is distributed by G-vector(128-way)

 ************************************ Title ************************************
 

 ***************************** General Parameters ******************************
  
 output verbosity                               : normal  (1)
 write checkpoint data to                       : 9x9.check
 type of calculation                            : transition state search
 stress calculation                             : off
 density difference calculation                 : off
 electron localisation func (ELF) calculation   : off
 Hirshfeld analysis                             : off
 polarisation (Berry phase) analysis            : off
 molecular orbital projected DOS                : off
 deltaSCF calculation                           : off
 unlimited duration calculation
 timing information                             : on
 memory usage estimate                          : on
 write extra output files                       : on
 write final potential to formatted file        : off
 write final density to formatted file          : off
 write structure in CELL formatted file         : on
 write BibTeX reference list                    : on
 write OTFG pseudopotential files               : on
 write electrostatic potential file             : on
 write bands file                               : on
 checkpoint writing                             : both castep_bin and check files
  
 output         length unit                     : A
 output           mass unit                     : amu
 output           time unit                     : ps
 output         charge unit                     : e
 output           spin unit                     : hbar/2
 output         energy unit                     : eV
 output          force unit                     : eV/A
 output       velocity unit                     : A/ps
 output       pressure unit                     : GPa
 output     inv_length unit                     : 1/A
 output      frequency unit                     : cm-1
 output force constant unit                     : eV/A**2
 output         volume unit                     : A**3
 output   IR intensity unit                     : (D/A)**2/amu
 output         dipole unit                     : D
 output         efield unit                     : eV/A/e
 output        entropy unit                     : J/mol/K
 output    efield chi2 unit                     : pm/V
  
 wavefunctions paging                           : none
 random number generator seed                   : randomised (162649029)
 data distribution                              : optimal for this architecture
 optimization strategy                          : maximize speed(+++)

 *********************** Exchange-Correlation Parameters ***********************
  
 using functional                               : Perdew Burke Ernzerhof
 relativistic treatment                         : Koelling-Harmon
 DFT+D: Semi-empirical dispersion correction    : on
 SEDC with                                      : MBD@rsSCS method

 ************************* Pseudopotential Parameters **************************
  
 pseudopotential representation                 : reciprocal space
 <beta|phi> representation                      : reciprocal space
 spin-orbit coupling                            : off

 **************************** Basis Set Parameters *****************************
  
 plane wave basis set cut-off                   :   800.0000   eV
 size of standard grid                          :     1.7500
 size of   fine   gmax                          :    25.3584   1/A
 finite basis set correction                    : none

 **************************** Electronic Parameters ****************************
  
 number of  electrons                           :  650.0    
 net charge of system                           :  0.000    
 treating system as non-spin-polarized
 number of bands                                :        488

 ********************* Electronic Minimization Parameters **********************
  
 Method: Treating system as metallic with density mixing treatment of electrons,
         and number of  SD  steps               :          1
         and number of  CG  steps               :          4
  
 total energy / atom convergence tol.           : 0.1000E-05   eV
 eigen-energy convergence tolerance             : 0.3361E-06   eV
 max force / atom convergence tol.              : ignored
 convergence tolerance window                   :          3   cycles
 max. number of SCF cycles                      :        100
 number of fixed-spin iterations                :         10
 smearing scheme                                : Gaussian
 smearing width                                 : 0.2000       eV
 Fermi energy convergence tolerance             : 0.2721E-13   eV
 periodic dipole correction                     : NONE

 ************************** Density Mixing Parameters **************************
  
 density-mixing scheme                          : Pulay
 max. length of mixing history                  :         20
 charge density mixing amplitude                : 0.8000    
 cut-off energy for mixing                      :  800.0       eV

 *********************** Population Analysis Parameters ************************
  
 Population analysis with cutoff                :  3.000       A
 Population analysis output                     : summary and pdos components

 ********************* Transition State Search Parameters **********************
  
 search method                                  : LSTQST
 LSTQST protocol                                : COMPLETELSTQST   
 max. number of QST iterations                  :         60
 max. number of CG  iterations                  :         60
 max. ionic |force| tolerance                   : 0.2571       eV/A
 max. ionic |displacement| tolerance            : 0.1000E-02   A

 *******************************************************************************
  
 
                           -------------------------------
                                      Unit Cell
                           -------------------------------
        Real Lattice(A)                      Reciprocal Lattice(1/A)
    22.2300000     0.0000000     0.0000000        0.282644413   0.163184826   0.000000000
   -11.1150000    19.2517450     0.0000000        0.000000000   0.326369652   0.000000000
     0.0000000     0.0000000    20.0340000        0.000000000   0.000000000   0.313626101
 
                       Lattice parameters(A)       Cell Angles
                    a =     22.230000          alpha =   90.000000
                    b =     22.230000          beta  =   90.000000
                    c =     20.034000          gamma =  120.000000
 
                       Current cell volume =          8573.876681       A**3
                                   density =             0.227173   AMU/A**3
                                           =             0.377229     g/cm^3
 
                           -------------------------------
                                     Cell Contents
                           -------------------------------
                         Total number of ions in cell =  164
                      Total number of species in cell =    2
                        Max number of any one species =  162
 
            xxxxxxxxxxxxxxxxxxxxxxxxxxxxxxxxxxxxxxxxxxxxxxxxxxxxxxxxxxxx
            x                          Reactant                        x
            xxxxxxxxxxxxxxxxxxxxxxxxxxxxxxxxxxxxxxxxxxxxxxxxxxxxxxxxxxxx
            x  Element    Atom        Fractional coordinates of atoms  x
            x            Number           u          v          w      x
            x----------------------------------------------------------x
            x  H            1         0.453262   0.462352   0.596923   x 
            x  H            2         0.398334   0.352282   0.596919   x 
            x  C            1         0.073970   0.036995   0.497630   x 
            x  C            2        -0.000127  -0.000076   0.496831   x 
            x  C            3         0.073724   0.147937   0.497382   x 
            x  C            4        -0.000207   0.110862   0.496528   x 
            x  C            5         0.073801   0.258958   0.496835   x 
            x  C            6        -0.000220   0.221868   0.495956   x 
            x  C            7         0.073947   0.370288   0.495589   x 
            x  C            8        -0.000234   0.333116   0.495039   x 
            x  C            9         0.073752   0.481343   0.495000   x 
            x  C           10        -0.000135   0.444303   0.494705   x 
            x  C           11         0.073847   0.592561   0.495304   x 
            x  C           12        -0.000264   0.555384   0.495123   x 
            x  C           13         0.073874   0.703928   0.495967   x 
            x  C           14        -0.000222   0.666714   0.495775   x 
            x  C           15         0.073851   0.815081   0.496835   x 
            x  C           16        -0.000090   0.777908   0.496502   x 
            x  C           17         0.073928   0.926095   0.497539   x 
            x  C           18        -0.000182   0.888923   0.496926   x 
            x  C           19         0.184963   0.036941   0.499686   x 
            x  C           20         0.110973  -0.000067   0.498195   x 
            x  C           21         0.184913   0.147880   0.500606   x 
            x  C           22         0.110778   0.110802   0.498243   x 
            x  C           23         0.184955   0.259101   0.501262   x 
            x  C           24         0.110654   0.221922   0.498077   x 
            x  C           25         0.185013   0.370202   0.499518   x 
            x  C           26         0.111050   0.333177   0.496930   x 
            x  C           27         0.185105   0.481290   0.496910   x 
            x  C           28         0.110831   0.444140   0.495569   x 
            x  C           29         0.185012   0.592666   0.495916   x 
            x  C           30         0.110715   0.555438   0.495311   x 
            x  C           31         0.184887   0.703830   0.496036   x 
            x  C           32         0.110854   0.666695   0.495724   x 
            x  C           33         0.185053   0.815105   0.496863   x 
            x  C           34         0.110812   0.777857   0.496569   x 
            x  C           35         0.185101   0.926298   0.498294   x 
            x  C           36         0.110852   0.889131   0.497611   x 
            x  C           37         0.296177   0.036894   0.499711   x 
            x  C           38         0.221948  -0.000259   0.499474   x 
            x  C           39         0.296332   0.148395   0.504536   x 
            x  C           40         0.221851   0.110889   0.501659   x 
            x  C           41         0.295649   0.259159   0.510357   x 
            x  C           42         0.221823   0.221999   0.503117   x 
            x  C           43         0.296010   0.369519   0.511654   x 
            x  C           44         0.222171   0.332983   0.503300   x 
            x  C           45         0.296483   0.481594   0.503289   x 
            x  C           46         0.222075   0.444316   0.499515   x 
            x  C           47         0.296043   0.592676   0.498084   x 
            x  C           48         0.222079   0.555567   0.496820   x 
            x  C           49         0.296153   0.703862   0.496528   x 
            x  C           50         0.221959   0.666650   0.496117   x 
            x  C           51         0.296222   0.815177   0.496616   x 
            x  C           52         0.222000   0.777987   0.496480   x 
            x  C           53         0.296137   0.926103   0.497582   x 
            x  C           54         0.222162   0.889163   0.497654   x 
            x  C           55         0.407231   0.036812   0.497653   x 
            x  C           56         0.333125  -0.000142   0.498228   x 
            x  C           57         0.407204   0.147807   0.500615   x 
            x  C           58         0.333258   0.110845   0.501677   x 
            x  C           59         0.407806   0.259151   0.510337   x 
            x  C           60         0.332957   0.221630   0.510095   x 
            x  C           61         0.405523   0.366724   0.543200   x 
            x  C           62         0.331273   0.332146   0.518213   x 
            x  C           63         0.406448   0.482487   0.518159   x 
            x  C           64         0.333805   0.445093   0.511634   x 
            x  C           65         0.407167   0.592654   0.503102   x 
            x  C           66         0.333182   0.555508   0.501260   x 
            x  C           67         0.407377   0.703966   0.498261   x 
            x  C           68         0.333119   0.666748   0.497394   x 
            x  C           69         0.407329   0.815085   0.496832   x 
            x  C           70         0.333285   0.778012   0.496555   x 
            x  C           71         0.407392   0.926070   0.496744   x 
            x  C           72         0.333244   0.889073   0.496934   x 
            x  C           73         0.518318   0.036683   0.496580   x 
            x  C           74         0.444345  -0.000233   0.496846   x 
            x  C           75         0.518473   0.147864   0.497422   x 
            x  C           76         0.444217   0.110665   0.498261   x 
            x  C           77         0.518434   0.259115   0.501289   x 
            x  C           78         0.444444   0.221963   0.503111   x 
            x  C           79         0.517833   0.369546   0.511668   x 
            x  C           80         0.445183   0.332145   0.518183   x 
            x  C           81         0.520379   0.482507   0.518254   x 
            x  C           82         0.446111   0.447918   0.543203   x 
            x  C           83         0.518683   0.593014   0.510127   x 
            x  C           84         0.443835   0.555490   0.510322   x 
            x  C           85         0.518364   0.703806   0.501693   x 
            x  C           86         0.444411   0.666826   0.500619   x 
            x  C           87         0.518570   0.815002   0.498263   x 
            x  C           88         0.444388   0.777889   0.497655   x 
            x  C           89         0.518579   0.926121   0.496962   x 
            x  C           90         0.444436   0.889125   0.496743   x 
            x  C           91         0.629599   0.036703   0.496531   x 
            x  C           92         0.555449  -0.000321   0.496662   x 
            x  C           93         0.629620   0.147944   0.496157   x 
            x  C           94         0.555424   0.110759   0.496559   x 
            x  C           95         0.629523   0.259033   0.496892   x 
            x  C           96         0.555549   0.221922   0.498130   x 
            x  C           97         0.629548   0.370304   0.499595   x 
            x  C           98         0.555134   0.333020   0.503341   x 
            x  C           99         0.629474   0.481662   0.503387   x 
            x  C          100         0.555631   0.445124   0.511701   x 
            x  C          101         0.629852   0.592678   0.503232   x 
            x  C          102         0.556014   0.555510   0.510428   x 
            x  C          103         0.629825   0.703804   0.501764   x 
            x  C          104         0.555318   0.666266   0.504583   x 
            x  C          105         0.629788   0.815134   0.499552   x 
            x  C          106         0.555479   0.777828   0.499755   x 
            x  C          107         0.629647   0.926030   0.497713   x 
            x  C          108         0.555688   0.889098   0.497628   x 
            x  C          109         0.740810   0.036825   0.496593   x 
            x  C          110         0.666622  -0.000258   0.496904   x 
            x  C          111         0.740759   0.147897   0.495726   x 
            x  C          112         0.666702   0.110785   0.496072   x 
            x  C          113         0.740913   0.259153   0.495357   x 
            x  C          114         0.666579   0.221918   0.495973   x 
            x  C          115         0.740809   0.370465   0.495664   x 
            x  C          116         0.666507   0.333305   0.496996   x 
            x  C          117         0.740603   0.481452   0.497030   x 
            x  C          118         0.666623   0.444423   0.499610   x 
            x  C          119         0.741033   0.592759   0.498230   x 
            x  C          120         0.666711   0.555567   0.501382   x 
            x  C          121         0.740966   0.703964   0.498403   x 
            x  C          122         0.666792   0.666832   0.500739   x 
            x  C          123         0.740843   0.814976   0.498298   x 
            x  C          124         0.666763   0.777817   0.499789   x 
            x  C          125         0.740927   0.926042   0.497670   x 
            x  C          126         0.666704   0.888897   0.498370   x 
            x  C          127         0.851923   0.036784   0.496467   x 
            x  C          128         0.777900  -0.000227   0.496864   x 
            x  C          129         0.852077   0.147951   0.495730   x 
            x  C          130         0.777818   0.110715   0.495959   x 
            x  C          131         0.852129   0.259298   0.495093   x 
            x  C          132         0.777844   0.222051   0.495304   x 
            x  C          133         0.852001   0.370385   0.494732   x 
            x  C          134         0.777948   0.333273   0.495066   x 
            x  C          135         0.852108   0.481584   0.495122   x 
            x  C          136         0.777770   0.444351   0.495686   x 
            x  C          137         0.852097   0.592853   0.496079   x 
            x  C          138         0.777931   0.555721   0.496969   x 
            x  C          139         0.852114   0.703922   0.496675   x 
            x  C          140         0.778044   0.666805   0.497559   x 
            x  C          141         0.852106   0.815001   0.496928   x 
            x  C          142         0.777882   0.777852   0.497760   x 
            x  C          143         0.851989   0.926097   0.496934   x 
            x  C          144         0.777869   0.889076   0.497589   x 
            x  C          145         0.963055   0.036892   0.496563   x 
            x  C          146         0.888948  -0.000260   0.496610   x 
            x  C          147         0.963084   0.148083   0.496142   x 
            x  C          148         0.888972   0.110868   0.496046   x 
            x  C          149         0.963032   0.259192   0.495371   x 
            x  C          150         0.889146   0.222082   0.495330   x 
            x  C          151         0.963166   0.370346   0.494720   x 
            x  C          152         0.889031   0.333167   0.494790   x 
            x  C          153         0.963153   0.481669   0.494802   x 
            x  C          154         0.889023   0.444501   0.494756   x 
            x  C          155         0.963038   0.592746   0.495390   x 
            x  C          156         0.889163   0.555670   0.495459   x 
            x  C          157         0.963196   0.703949   0.496119   x 
            x  C          158         0.889098   0.666786   0.496261   x 
            x  C          159         0.963173   0.815134   0.496652   x 
            x  C          160         0.889085   0.778000   0.496656   x 
            x  C          161         0.962910   0.925977   0.496754   x 
            x  C          162         0.888991   0.888996   0.496783   x 
            xxxxxxxxxxxxxxxxxxxxxxxxxxxxxxxxxxxxxxxxxxxxxxxxxxxxxxxxxxxx
 
            xxxxxxxxxxxxxxxxxxxxxxxxxxxxxxxxxxxxxxxxxxxxxxxxxxxxxxxxxxxx
            x                          Product                         x
            xxxxxxxxxxxxxxxxxxxxxxxxxxxxxxxxxxxxxxxxxxxxxxxxxxxxxxxxxxxx
            x  Element    Atom        Fractional coordinates of atoms  x
            x            Number           u          v          w      x
            x----------------------------------------------------------x
            x  H            1         0.433219   0.422363   0.709384   x 
            x  H            2         0.415045   0.383556   0.705649   x 
            x  C            1         0.073888   0.036856   0.499591   x 
            x  C            2        -0.000073  -0.000076   0.499706   x 
            x  C            3         0.073739   0.147892   0.499418   x 
            x  C            4        -0.000240   0.110870   0.499502   x 
            x  C            5         0.073675   0.258996   0.499244   x 
            x  C            6        -0.000297   0.221945   0.499269   x 
            x  C            7         0.073684   0.370164   0.499057   x 
            x  C            8        -0.000280   0.333115   0.499042   x 
            x  C            9         0.073721   0.481364   0.499032   x 
            x  C           10        -0.000240   0.444314   0.498980   x 
            x  C           11         0.073770   0.592581   0.499161   x 
            x  C           12        -0.000193   0.555524   0.499093   x 
            x  C           13         0.073816   0.703796   0.499431   x 
            x  C           14        -0.000150   0.666724   0.499369   x 
            x  C           15         0.073852   0.814990   0.499598   x 
            x  C           16        -0.000134   0.777886   0.499585   x 
            x  C           17         0.073842   0.926018   0.499675   x 
            x  C           18        -0.000159   0.888969   0.499742   x 
            x  C           19         0.184907   0.036719   0.499531   x 
            x  C           20         0.110886  -0.000179   0.499613   x 
            x  C           21         0.184899   0.147880   0.499334   x 
            x  C           22         0.110809   0.110878   0.499439   x 
            x  C           23         0.184841   0.259027   0.499226   x 
            x  C           24         0.110719   0.221962   0.499304   x 
            x  C           25         0.184816   0.370188   0.499142   x 
            x  C           26         0.110688   0.333093   0.499140   x 
            x  C           27         0.184832   0.481381   0.499143   x 
            x  C           28         0.110705   0.444274   0.499055   x 
            x  C           29         0.184875   0.592596   0.499236   x 
            x  C           30         0.110747   0.555484   0.499124   x 
            x  C           31         0.184929   0.703818   0.499379   x 
            x  C           32         0.110799   0.666705   0.499321   x 
            x  C           33         0.184981   0.815018   0.499547   x 
            x  C           34         0.110848   0.777921   0.499547   x 
            x  C           35         0.184961   0.926010   0.499595   x 
            x  C           36         0.110882   0.889058   0.499629   x 
            x  C           37         0.296010   0.036676   0.499486   x 
            x  C           38         0.221953  -0.000254   0.499555   x 
            x  C           39         0.296044   0.147831   0.499313   x 
            x  C           40         0.221928   0.110787   0.499393   x 
            x  C           41         0.296068   0.259050   0.499185   x 
            x  C           42         0.221934   0.221989   0.499231   x 
            x  C           43         0.296055   0.370238   0.499151   x 
            x  C           44         0.221904   0.333152   0.499164   x 
            x  C           45         0.296055   0.481427   0.499186   x 
            x  C           46         0.221899   0.444330   0.499149   x 
            x  C           47         0.296083   0.592640   0.499311   x 
            x  C           48         0.221927   0.555532   0.499238   x 
            x  C           49         0.296134   0.703862   0.499439   x 
            x  C           50         0.221975   0.666750   0.499346   x 
            x  C           51         0.296189   0.815060   0.499555   x 
            x  C           52         0.222034   0.777967   0.499489   x 
            x  C           53         0.296156   0.926030   0.499580   x 
            x  C           54         0.222070   0.889091   0.499578   x 
            x  C           55         0.407178   0.036684   0.499488   x 
            x  C           56         0.333108  -0.000247   0.499525   x 
            x  C           57         0.407211   0.147815   0.499290   x 
            x  C           58         0.333077   0.110745   0.499360   x 
            x  C           59         0.407264   0.259042   0.499183   x 
            x  C           60         0.333121   0.221968   0.499211   x 
            x  C           61         0.407283   0.370259   0.499175   x 
            x  C           62         0.333135   0.333182   0.499162   x 
            x  C           63         0.407284   0.481458   0.499204   x 
            x  C           64         0.333130   0.444372   0.499167   x 
            x  C           65         0.407305   0.592672   0.499289   x 
            x  C           66         0.333147   0.555577   0.499258   x 
            x  C           67         0.407347   0.703896   0.499442   x 
            x  C           68         0.333189   0.666793   0.499400   x 
            x  C           69         0.407402   0.815094   0.499615   x 
            x  C           70         0.333248   0.778007   0.499546   x 
            x  C           71         0.407365   0.926064   0.499649   x 
            x  C           72         0.333280   0.889125   0.499610   x 
            x  C           73         0.518374   0.036710   0.499539   x 
            x  C           74         0.444297  -0.000225   0.499580   x 
            x  C           75         0.518407   0.147830   0.499363   x 
            x  C           76         0.444260   0.110750   0.499368   x 
            x  C           77         0.518463   0.259048   0.499227   x 
            x  C           78         0.444311   0.221958   0.499215   x 
            x  C           79         0.518498   0.370269   0.499184   x 
            x  C           80         0.444346   0.333184   0.499174   x 
            x  C           81         0.518508   0.481474   0.499237   x 
            x  C           82         0.444356   0.444394   0.499202   x 
            x  C           83         0.518518   0.592684   0.499328   x 
            x  C           84         0.444368   0.555602   0.499262   x 
            x  C           85         0.518553   0.703912   0.499488   x 
            x  C           86         0.444402   0.666820   0.499389   x 
            x  C           87         0.518604   0.815119   0.499625   x 
            x  C           88         0.444457   0.778038   0.499562   x 
            x  C           89         0.518566   0.926094   0.499657   x 
            x  C           90         0.444488   0.889157   0.499671   x 
            x  C           91         0.629583   0.036745   0.499532   x 
            x  C           92         0.555500  -0.000193   0.499583   x 
            x  C           93         0.629616   0.147864   0.499356   x 
            x  C           94         0.555463   0.110777   0.499426   x 
            x  C           95         0.629675   0.259078   0.499247   x 
            x  C           96         0.555516   0.221973   0.499289   x 
            x  C           97         0.629717   0.370295   0.499191   x 
            x  C           98         0.555559   0.333198   0.499195   x 
            x  C           99         0.629730   0.481495   0.499264   x 
            x  C          100         0.555580   0.444410   0.499219   x 
            x  C          101         0.629729   0.592689   0.499369   x 
            x  C          102         0.555582   0.555612   0.499303   x 
            x  C          103         0.629745   0.703906   0.499533   x 
            x  C          104         0.555601   0.666828   0.499451   x 
            x  C          105         0.629788   0.815126   0.499676   x 
            x  C          106         0.555653   0.778054   0.499609   x 
            x  C          107         0.629756   0.926118   0.499669   x 
            x  C          108         0.555686   0.889185   0.499663   x 
            x  C          109         0.740791   0.036782   0.499612   x 
            x  C          110         0.666707  -0.000158   0.499617   x 
            x  C          111         0.740828   0.147907   0.499360   x 
            x  C          112         0.666672   0.110812   0.499409   x 
            x  C          113         0.740888   0.259125   0.499152   x 
            x  C          114         0.666725   0.222007   0.499252   x 
            x  C          115         0.740935   0.370345   0.499101   x 
            x  C          116         0.666780   0.333231   0.499176   x 
            x  C          117         0.740963   0.481545   0.499226   x 
            x  C          118         0.666810   0.444443   0.499223   x 
            x  C          119         0.740961   0.592724   0.499426   x 
            x  C          120         0.666811   0.555637   0.499355   x 
            x  C          121         0.740929   0.703887   0.499560   x 
            x  C          122         0.666795   0.666822   0.499474   x 
            x  C          123         0.740934   0.815087   0.499717   x 
            x  C          124         0.666817   0.778039   0.499655   x 
            x  C          125         0.740907   0.926126   0.499718   x 
            x  C          126         0.666853   0.889196   0.499701   x 
            x  C          127         0.851981   0.036821   0.499608   x 
            x  C          128         0.777903  -0.000131   0.499662   x 
            x  C          129         0.852013   0.147958   0.499384   x 
            x  C          130         0.777881   0.110859   0.499475   x 
            x  C          131         0.852063   0.259174   0.499107   x 
            x  C          132         0.777932   0.222056   0.499191   x 
            x  C          133         0.852115   0.370395   0.499002   x 
            x  C          134         0.777988   0.333278   0.499065   x 
            x  C          135         0.852157   0.481606   0.499088   x 
            x  C          136         0.778029   0.444493   0.499120   x 
            x  C          137         0.852174   0.592786   0.499338   x 
            x  C          138         0.778048   0.555688   0.499343   x 
            x  C          139         0.852144   0.703916   0.499577   x 
            x  C          140         0.778022   0.666847   0.499529   x 
            x  C          141         0.852053   0.815002   0.499767   x 
            x  C          142         0.777964   0.777995   0.499689   x 
            x  C          143         0.851977   0.926060   0.499785   x 
            x  C          144         0.777956   0.889157   0.499758   x 
            x  C          145         0.963022   0.036912   0.499650   x 
            x  C          146         0.889020  -0.000138   0.499694   x 
            x  C          147         0.962996   0.147996   0.499409   x 
            x  C          148         0.889012   0.110889   0.499465   x 
            x  C          149         0.963012   0.259159   0.499153   x 
            x  C          150         0.889045   0.222081   0.499200   x 
            x  C          151         0.963055   0.370357   0.498985   x 
            x  C          152         0.889093   0.333299   0.499003   x 
            x  C          153         0.963102   0.481567   0.498999   x 
            x  C          154         0.889142   0.444515   0.499006   x 
            x  C          155         0.963142   0.592766   0.499203   x 
            x  C          156         0.889178   0.555716   0.499194   x 
            x  C          157         0.963159   0.703933   0.499471   x 
            x  C          158         0.889186   0.666884   0.499463   x 
            x  C          159         0.963103   0.815013   0.499689   x 
            x  C          160         0.889124   0.777988   0.499696   x 
            x  C          161         0.962936   0.925959   0.499796   x 
            x  C          162         0.888973   0.889021   0.499823   x 
            xxxxxxxxxxxxxxxxxxxxxxxxxxxxxxxxxxxxxxxxxxxxxxxxxxxxxxxxxxxx
 
 
                         No user defined ionic velocities
 
                           -------------------------------
                                   Details of Species
                           -------------------------------
 
                               Mass of species in AMU
                                    H    1.0079400
                                    C   12.0107000
 
                          Electric Quadrupole Moment (Barn)
                                    H    0.0028600 Isotope  2
                                    C    0.0332700 Isotope 11
 
                          Files used for pseudopotentials:
                                    H 1|0.8|14|16|19|10N(qc=8)
                                    C 1|1.2|17|20|23|20N:21L(qc=8)
 
                           -------------------------------
                              k-Points For BZ Sampling
                           -------------------------------
                       MP grid size for SCF calculation is  1  1  1
                            with an offset of   0.000  0.000  0.000
                       Number of kpoints used =   1
 
                           -------------------------------
                               Symmetry and Constraints
                           -------------------------------
 
                      Maximum deviation from symmetry =  0.00000         ANG
 
                      Number of symmetry operations   = 1
         There are no ionic constraints specified or generated for this cell
                      Point group of crystal =     1: C1, 1, 1
                      Space group of crystal =     1: P1, P 1
 
             Set iprint > 1 for details on symmetry rotations/translations
 
                         Centre of mass is NOT constrained
 
                         Number of cell constraints= 6
                         Cell constraints are:  0 0 0 0 0 0
 
                         External pressure/stress (GPa)
                          0.00000   0.00000   0.00000
                                    0.00000   0.00000
                                              0.00000
 
                                --------------------
                                  DFT-D parameters
                                --------------------
 
                          Dispersion-correction scheme : MBD*      
                        Parameter sR :   0.830000 (default)
 
        xxxxxxxxxxxxxxxxxxxxxxxxxxxxxxxxxxxxxxxxxxxxxxxxxxxxxxxxxxxxxxxxxxxx
        x              Atomic DFT-D parameters                             x
        x  Species      C6            alpha        R0                      x
        x               eV A^6        A^3          A                       x
        x------------------------------------------------------------------x
        x  H             3.8839       0.6668       1.6404   (default)      x
        x  C            27.8448       1.7782       1.8997   (default)      x
        xxxxxxxxxxxxxxxxxxxxxxxxxxxxxxxxxxxxxxxxxxxxxxxxxxxxxxxxxxxxxxxxxxxx
 
  
+---------------- MEMORY AND SCRATCH DISK ESTIMATES PER PROCESS --------------+
|                                                     Memory          Disk    |
| Baseline code, static data and system overhead      788.0 MB         0.0 MB |
| BLAS internal memory storage                          0.0 MB         0.0 MB |
| Model and support data                               35.2 MB         0.0 MB |
| Electronic energy minimisation requirements          68.9 MB         0.0 MB |
| Force calculation requirements                        5.4 MB         0.0 MB |
|                                               ----------------------------- |
| Approx. total storage required per process          892.1 MB         0.0 MB |
|                                                                             |
| Requirements will fluctuate during execution and may exceed these estimates |
+-----------------------------------------------------------------------------+
Calculating approximate eigenstates for fixed initial Hamiltonian
Cut-off for approx. calculation is  282.421 eV
Improving approx. states at cut-off of  462.594 eV
Resetting cut-off to  800.000 eV
Calculating total energy with cut-off of  800.000 eV.
------------------------------------------------------------------------ <-- SCF
SCF loop      Energy           Fermi           Energy gain       Timer   <-- SCF
                               energy          per atom          (sec)   <-- SCF
------------------------------------------------------------------------ <-- SCF
Initial  -2.39326276E+004  0.00000000E+000                        28.15  <-- SCF
      1  -2.62821817E+004 -5.68151256E+000   1.43265494E+001      43.16  <-- SCF
      2  -2.62827116E+004 -5.68271703E+000   3.23115283E-003      58.65  <-- SCF
      3  -2.62179526E+004 -4.37936146E+000  -3.94871881E-001      76.00  <-- SCF
      4  -2.62140007E+004 -3.87884637E+000  -2.40971352E-002      93.69  <-- SCF
      5  -2.62127454E+004 -3.55825743E+000  -7.65396964E-003     111.96  <-- SCF
      6  -2.62123876E+004 -3.36043863E+000  -2.18172478E-003     129.69  <-- SCF
      7  -2.62120574E+004 -3.12462895E+000  -2.01342000E-003     146.76  <-- SCF
      8  -2.62118588E+004 -2.98618643E+000  -1.21093458E-003     163.73  <-- SCF
      9  -2.62118812E+004 -2.84031150E+000   1.36191897E-004     180.32  <-- SCF
     10  -2.62119629E+004 -2.74519222E+000   4.98218277E-004     196.26  <-- SCF
     11  -2.62119911E+004 -2.66997933E+000   1.71959933E-004     211.38  <-- SCF
     12  -2.62119864E+004 -2.60093674E+000  -2.85561607E-005     226.55  <-- SCF
     13  -2.62119758E+004 -2.53359225E+000  -6.42754254E-005     241.24  <-- SCF
     14  -2.62119683E+004 -2.46543491E+000  -4.62922057E-005     255.63  <-- SCF
     15  -2.62119932E+004 -2.40708391E+000   1.52187467E-004     269.82  <-- SCF
     16  -2.62120277E+004 -2.38716647E+000   2.10378247E-004     283.67  <-- SCF
     17  -2.62120425E+004 -2.38455620E+000   9.00279342E-005     297.22  <-- SCF
     18  -2.62120458E+004 -2.38415421E+000   2.05164959E-005     310.16  <-- SCF
     19  -2.62120467E+004 -2.38408539E+000   4.92242485E-006     322.91  <-- SCF
     20  -2.62120468E+004 -2.38413329E+000   9.23829579E-007     336.11  <-- SCF
     21  -2.62120469E+004 -2.38412580E+000   4.84949475E-007     349.07  <-- SCF
     22  -2.62120470E+004 -2.38404101E+000   4.57741508E-007     362.27  <-- SCF
------------------------------------------------------------------------ <-- SCF
 
Final energy, E             =  -26211.74733630     eV
Final free energy (E-TS)    =  -26212.04695629     eV
(energies not corrected for finite basis set)
 
NB est. 0K energy (E-0.5TS)      =  -26211.89714629     eV
 
(SEDC) Total Energy Correction : -0.134492E+02 eV

Dispersion corrected final energy*, Ecor          =  -26225.19652648     eV
Dispersion corrected final free energy* (Ecor-TS) =  -26225.49614646     eV
NB dispersion corrected est. 0K energy* (Ecor-0.5TS) =  -26225.34633647     eV

Writing analysis data to 9x9.castep_bin

Writing model to 9x9.check
++++++++++++++++++++++++++++++++++++++++++++++++++++++++++++++++++++++++++++++++
+++++++++++++++++++++++ Starting Transition State Search +++++++++++++++++++++++
++++++++++++++++++++++++++++++++++++++++++++++++++++++++++++++++++++++++++++++++
 
++++++++++++++++++++++++++++++++++++++++++++++++++++++++++++++++++++++++++++++++
+++++++++++++++++++++++ Linear synchronous transit method ++++++++++++++++++++++
++++++++++++++++++++++++++++++++++++++++++++++++++++++++++++++++++++++++++++++++
 
 +++++++++++++++++++++++++++++++++++++++++++++++++++++++
 Difference vector: Fractional components 
 +++++++++++++++++++++++++++++++++++++++++++++++++++++++
   -0.020042820   -0.039989610    0.112461303
    0.016711574    0.031274317    0.108729804
   -0.000081623   -0.000138287    0.001961159
    0.000054483    0.000000701    0.002875822
    0.000015228   -0.000044680    0.002036119
   -0.000033021    0.000008276    0.002974022
   -0.000125811    0.000038664    0.002409049
   -0.000076202    0.000076687    0.003312909
   -0.000263361   -0.000124241    0.003467974
   -0.000046550   -0.000001071    0.004002735
   -0.000030900    0.000020422    0.004031650
   -0.000104795    0.000011805    0.004275178
   -0.000076763    0.000019519    0.003856934
    0.000071571    0.000139606    0.003969726
   -0.000057301   -0.000131964    0.003464333
    0.000072608    0.000010078    0.003593701
    0.000000389   -0.000091175    0.002762617
   -0.000043603   -0.000022493    0.003083074
   -0.000085598   -0.000077315    0.002136221
    0.000022852    0.000046106    0.002816606
   -0.000056199   -0.000221599   -0.000155218
   -0.000087172   -0.000111677    0.001417783
   -0.000014020    0.000000417   -0.001271277
    0.000031159    0.000076576    0.001195897
   -0.000114002   -0.000073426   -0.002036240
    0.000064310    0.000039981    0.001227363
   -0.000196635   -0.000014068   -0.000376767
   -0.000361623   -0.000083681    0.002209670
   -0.000273094    0.000091162    0.002232428
   -0.000126054    0.000133624    0.003485831
   -0.000137623   -0.000069130    0.003320831
    0.000031756    0.000046120    0.003813045
    0.000042045   -0.000011987    0.003342979
   -0.000055295    0.000010349    0.003596958
   -0.000071843   -0.000087261    0.002683953
    0.000036673    0.000064543    0.002977967
   -0.000140341   -0.000287948    0.001301079
    0.000030148   -0.000073433    0.002018357
   -0.000167053   -0.000218005   -0.000225036
    0.000004668    0.000005363    0.000081170
   -0.000288024   -0.000563954   -0.005222707
    0.000076972   -0.000102102   -0.002265735
    0.000419379   -0.000108453   -0.011171183
    0.000111544   -0.000010078   -0.003886543
    0.000044572    0.000718946   -0.012503551
   -0.000267279    0.000169441   -0.004136241
   -0.000427931   -0.000166643   -0.004103273
   -0.000176107    0.000013305   -0.000366075
    0.000040258   -0.000036042    0.001226374
   -0.000152225   -0.000035236    0.002418265
   -0.000019286   -0.000000508    0.002910609
    0.000016007    0.000099752    0.003228896
   -0.000032410   -0.000117153    0.002938715
    0.000034243   -0.000020732    0.003008950
    0.000019145   -0.000072904    0.001997696
   -0.000092850   -0.000072304    0.001923976
   -0.000053485   -0.000127951    0.001835359
   -0.000016953   -0.000105259    0.001297318
    0.000007097    0.000007464   -0.001325488
   -0.000180874   -0.000099922   -0.002316897
   -0.000542223   -0.000108593   -0.011153914
    0.000163883    0.000338005   -0.010884025
    0.001759487    0.003535368   -0.044025870
    0.001862126    0.001036273   -0.019050837
    0.000836104   -0.001028993   -0.018955491
   -0.000674070   -0.000720749   -0.012466375
    0.000137119    0.000018271   -0.003813041
   -0.000034940    0.000068959   -0.002002286
   -0.000029309   -0.000070499    0.001180381
    0.000070113    0.000045451    0.002006345
    0.000072609    0.000008838    0.002783568
   -0.000037230   -0.000005142    0.002991355
   -0.000026868   -0.000005677    0.002904953
    0.000036334    0.000051858    0.002676389
    0.000055859    0.000027178    0.002958489
   -0.000048289    0.000008019    0.002734331
   -0.000065823   -0.000034010    0.001940552
    0.000043791    0.000085337    0.001106811
    0.000029286   -0.000066233   -0.002062278
   -0.000132588   -0.000004999   -0.003895489
    0.000665649    0.000722770   -0.012484831
   -0.000836582    0.001038946   -0.019009603
   -0.001871682   -0.001032934   -0.019017089
   -0.001754416   -0.003524555   -0.044000803
   -0.000165161   -0.000329822   -0.010798693
    0.000532545    0.000112051   -0.011059700
    0.000189256    0.000106034   -0.002205223
   -0.000009423   -0.000006280   -0.001229808
    0.000033902    0.000116695    0.001362035
    0.000068922    0.000148809    0.001907483
   -0.000012227   -0.000027634    0.002695144
    0.000052530    0.000031403    0.002927828
   -0.000016037    0.000042596    0.003000493
    0.000051699    0.000127696    0.002920674
   -0.000003375   -0.000080107    0.003199050
    0.000038907    0.000018127    0.002867772
    0.000152174    0.000045204    0.002355046
   -0.000033340    0.000050927    0.001159045
    0.000169333   -0.000008796   -0.000403866
    0.000424687    0.000178208   -0.004145712
    0.000255923   -0.000166882   -0.004123133
   -0.000051292   -0.000714345   -0.012481787
   -0.000123557    0.000010634   -0.003863649
   -0.000431650    0.000102581   -0.011125170
   -0.000079644    0.000101327   -0.002230574
    0.000282334    0.000561932   -0.005132696
   -0.000000566   -0.000008718    0.000124527
    0.000173238    0.000226636   -0.000145657
    0.000109811    0.000087430    0.001956105
   -0.000002006    0.000086386    0.002035504
   -0.000018466   -0.000042523    0.003018806
    0.000085541    0.000100503    0.002713226
    0.000069157    0.000009520    0.003633895
   -0.000030103    0.000026706    0.003337638
   -0.000024377   -0.000027542    0.003794377
    0.000146577    0.000089330    0.003278149
    0.000126963   -0.000120425    0.003436829
    0.000272687   -0.000074264    0.002179924
    0.000359941    0.000092968    0.002196038
    0.000186491    0.000020827   -0.000386664
   -0.000072730   -0.000035503    0.001195652
    0.000099427    0.000070320   -0.002026251
   -0.000036916   -0.000077435    0.001156670
    0.000002901   -0.000009552   -0.001265471
    0.000090764    0.000110841    0.001419781
    0.000054852    0.000222730   -0.000133857
   -0.000019317    0.000083484    0.002048463
    0.000149012    0.000299627    0.001330602
    0.000058061    0.000037730    0.003140748
    0.000002551    0.000095956    0.002798406
   -0.000063745    0.000007115    0.003653831
    0.000063324    0.000144126    0.003516479
   -0.000066289   -0.000124244    0.004014420
    0.000087773    0.000004608    0.003886411
    0.000113774    0.000010728    0.004270540
    0.000039442    0.000005089    0.003998624
    0.000049674    0.000022008    0.003965438
    0.000258846    0.000141334    0.003433577
    0.000076754   -0.000067107    0.003258636
    0.000116595   -0.000033075    0.002374026
    0.000029268   -0.000006292    0.002901999
   -0.000022446    0.000042316    0.001970734
   -0.000053105    0.000001143    0.002839517
    0.000082552    0.000143088    0.001928156
   -0.000012098   -0.000036987    0.002851208
    0.000087706    0.000081567    0.002168888
   -0.000033021    0.000019844    0.003086699
    0.000071385    0.000121548    0.003084007
   -0.000088429   -0.000086694    0.003267512
    0.000039307    0.000020848    0.003418927
   -0.000020031   -0.000032561    0.003782266
   -0.000100691   -0.000000882    0.003869616
   -0.000111011    0.000010955    0.004264612
    0.000061771    0.000132014    0.004213278
   -0.000051416   -0.000101942    0.004196779
    0.000118371    0.000013855    0.004250211
    0.000104504    0.000019959    0.003813092
    0.000015955    0.000045493    0.003734930
   -0.000037290   -0.000016162    0.003352319
    0.000088040    0.000098302    0.003202139
   -0.000070121   -0.000121683    0.003036573
    0.000039484   -0.000011757    0.003040210
    0.000025411   -0.000018584    0.003041513
   -0.000017870    0.000025720    0.003040044
 +++++++++++++++++++++++++++++++++++++++++++++++++++++++
 
 +++++++++++++++++++++++++++++++++++++++++++++++++++++++
 Periodic cell setup complete
 +++++++++++++++++++++++++++++++++++++++++++++++++++++++
 
------------------------------------------------------------------------ <-- SCF
SCF loop      Energy           Fermi           Energy gain       Timer   <-- SCF
                               energy          per atom          (sec)   <-- SCF
------------------------------------------------------------------------ <-- SCF
Initial  -2.62117496E+004  0.00000000E+000                       383.81  <-- SCF
      1  -2.62120470E+004 -2.38402776E+000   1.81336029E-003     395.88  <-- SCF
      2  -2.62120470E+004 -2.38402776E+000   5.60427778E-011     408.78  <-- SCF
      3  -2.62120470E+004 -2.38402837E+000   1.49075713E-007     421.51  <-- SCF
      4  -2.62120471E+004 -2.38403158E+000   1.83927964E-007     434.54  <-- SCF
------------------------------------------------------------------------ <-- SCF
 
Final energy, E             =  -26211.74743683     eV
Final free energy (E-TS)    =  -26212.04705739     eV
(energies not corrected for finite basis set)
 
NB est. 0K energy (E-0.5TS)      =  -26211.89724711     eV
 

Dispersion corrected final energy*, Ecor          =  -26225.19662700     eV
Dispersion corrected final free energy* (Ecor-TS) =  -26225.49624756     eV
NB dispersion corrected est. 0K energy* (Ecor-0.5TS) =  -26225.34643728     eV
 +++++++++++++++++++++++++++++++++++++++++++++++++++++++
 Reactant                      
 Path coordinate:                         0.00000
 Energy:                             -26225.49625 eV                            
 +++++++++++++++++++++++++++++++++++++++++++++++++++++++
 
            ++++++++++++++++++++++++++++++++++++++++++++++++++++++++++++++++++++
                             Coordinates: Fractional components
            ++++++++++++++++++++++++++++++++++++++++++++++++++++++++++++++++++++
            +  Element    Atom                                                 +
            +            Number           x          y          z              +
            ++++++++++++++++++++++++++++++++++++++++++++++++++++++++++++++++++++
            +H             1          0.453262   0.462352   0.596923           +
            +H             2          0.398334   0.352282   0.596919           +
            +C             1          0.073970   0.036995   0.497630           +
            +C             2         -0.000127  -0.000076   0.496831           +
            +C             3          0.073724   0.147937   0.497382           +
            +C             4         -0.000207   0.110862   0.496528           +
            +C             5          0.073801   0.258958   0.496835           +
            +C             6         -0.000220   0.221868   0.495956           +
            +C             7          0.073947   0.370288   0.495589           +
            +C             8         -0.000234   0.333116   0.495039           +
            +C             9          0.073752   0.481343   0.495000           +
            +C            10         -0.000135   0.444303   0.494705           +
            +C            11          0.073847   0.592561   0.495304           +
            +C            12         -0.000264   0.555384   0.495123           +
            +C            13          0.073874   0.703928   0.495967           +
            +C            14         -0.000222   0.666714   0.495775           +
            +C            15          0.073851   0.815081   0.496835           +
            +C            16         -0.000090   0.777908   0.496502           +
            +C            17          0.073928   0.926095   0.497539           +
            +C            18         -0.000182   0.888923   0.496926           +
            +C            19          0.184963   0.036941   0.499686           +
            +C            20          0.110973  -0.000067   0.498195           +
            +C            21          0.184913   0.147880   0.500606           +
            +C            22          0.110778   0.110802   0.498243           +
            +C            23          0.184955   0.259101   0.501262           +
            +C            24          0.110654   0.221922   0.498077           +
            +C            25          0.185013   0.370202   0.499518           +
            +C            26          0.111050   0.333177   0.496930           +
            +C            27          0.185105   0.481290   0.496910           +
            +C            28          0.110831   0.444140   0.495569           +
            +C            29          0.185012   0.592666   0.495916           +
            +C            30          0.110715   0.555438   0.495311           +
            +C            31          0.184887   0.703830   0.496036           +
            +C            32          0.110854   0.666695   0.495724           +
            +C            33          0.185053   0.815105   0.496863           +
            +C            34          0.110812   0.777857   0.496569           +
            +C            35          0.185101   0.926298   0.498294           +
            +C            36          0.110852   0.889131   0.497611           +
            +C            37          0.296177   0.036894   0.499711           +
            +C            38          0.221948  -0.000259   0.499474           +
            +C            39          0.296332   0.148395   0.504536           +
            +C            40          0.221851   0.110889   0.501659           +
            +C            41          0.295649   0.259159   0.510357           +
            +C            42          0.221823   0.221999   0.503117           +
            +C            43          0.296010   0.369519   0.511654           +
            +C            44          0.222171   0.332983   0.503300           +
            +C            45          0.296483   0.481594   0.503289           +
            +C            46          0.222075   0.444316   0.499515           +
            +C            47          0.296043   0.592676   0.498084           +
            +C            48          0.222079   0.555567   0.496820           +
            +C            49          0.296153   0.703862   0.496528           +
            +C            50          0.221959   0.666650   0.496117           +
            +C            51          0.296222   0.815177   0.496616           +
            +C            52          0.222000   0.777987   0.496480           +
            +C            53          0.296137   0.926103   0.497582           +
            +C            54          0.222162   0.889163   0.497654           +
            +C            55          0.407231   0.036812   0.497653           +
            +C            56          0.333125  -0.000142   0.498228           +
            +C            57          0.407204   0.147807   0.500615           +
            +C            58          0.333258   0.110845   0.501677           +
            +C            59          0.407806   0.259151   0.510337           +
            +C            60          0.332957   0.221630   0.510095           +
            +C            61          0.405523   0.366724   0.543200           +
            +C            62          0.331273   0.332146   0.518213           +
            +C            63          0.406448   0.482487   0.518159           +
            +C            64          0.333805   0.445093   0.511634           +
            +C            65          0.407167   0.592654   0.503102           +
            +C            66          0.333182   0.555508   0.501260           +
            +C            67          0.407377   0.703966   0.498261           +
            +C            68          0.333119   0.666748   0.497394           +
            +C            69          0.407329   0.815085   0.496832           +
            +C            70          0.333285   0.778012   0.496555           +
            +C            71          0.407392   0.926070   0.496744           +
            +C            72          0.333244   0.889073   0.496934           +
            +C            73          0.518318   0.036683   0.496580           +
            +C            74          0.444345  -0.000233   0.496846           +
            +C            75          0.518473   0.147864   0.497422           +
            +C            76          0.444217   0.110665   0.498261           +
            +C            77          0.518434   0.259115   0.501289           +
            +C            78          0.444444   0.221963   0.503111           +
            +C            79          0.517833   0.369546   0.511668           +
            +C            80          0.445183   0.332145   0.518183           +
            +C            81          0.520379   0.482507   0.518254           +
            +C            82          0.446111   0.447918   0.543203           +
            +C            83          0.518683   0.593014   0.510127           +
            +C            84          0.443835   0.555490   0.510322           +
            +C            85          0.518364   0.703806   0.501693           +
            +C            86          0.444411   0.666826   0.500619           +
            +C            87          0.518570   0.815002   0.498263           +
            +C            88          0.444388   0.777889   0.497655           +
            +C            89          0.518579   0.926121   0.496962           +
            +C            90          0.444436   0.889125   0.496743           +
            +C            91          0.629599   0.036703   0.496531           +
            +C            92          0.555449  -0.000321   0.496662           +
            +C            93          0.629620   0.147944   0.496157           +
            +C            94          0.555424   0.110759   0.496559           +
            +C            95          0.629523   0.259033   0.496892           +
            +C            96          0.555549   0.221922   0.498130           +
            +C            97          0.629548   0.370304   0.499595           +
            +C            98          0.555134   0.333020   0.503341           +
            +C            99          0.629474   0.481662   0.503387           +
            +C           100          0.555631   0.445124   0.511701           +
            +C           101          0.629852   0.592678   0.503232           +
            +C           102          0.556014   0.555510   0.510428           +
            +C           103          0.629825   0.703804   0.501764           +
            +C           104          0.555318   0.666266   0.504583           +
            +C           105          0.629788   0.815134   0.499552           +
            +C           106          0.555479   0.777828   0.499755           +
            +C           107          0.629647   0.926030   0.497713           +
            +C           108          0.555688   0.889098   0.497628           +
            +C           109          0.740810   0.036825   0.496593           +
            +C           110          0.666622  -0.000258   0.496904           +
            +C           111          0.740759   0.147897   0.495726           +
            +C           112          0.666702   0.110785   0.496072           +
            +C           113          0.740913   0.259153   0.495357           +
            +C           114          0.666579   0.221918   0.495973           +
            +C           115          0.740809   0.370465   0.495664           +
            +C           116          0.666507   0.333305   0.496996           +
            +C           117          0.740603   0.481452   0.497030           +
            +C           118          0.666623   0.444423   0.499610           +
            +C           119          0.741033   0.592759   0.498230           +
            +C           120          0.666711   0.555567   0.501382           +
            +C           121          0.740966   0.703964   0.498403           +
            +C           122          0.666792   0.666832   0.500739           +
            +C           123          0.740843   0.814976   0.498298           +
            +C           124          0.666763   0.777817   0.499789           +
            +C           125          0.740927   0.926042   0.497670           +
            +C           126          0.666704   0.888897   0.498370           +
            +C           127          0.851923   0.036784   0.496467           +
            +C           128          0.777900  -0.000227   0.496864           +
            +C           129          0.852077   0.147951   0.495730           +
            +C           130          0.777818   0.110715   0.495959           +
            +C           131          0.852129   0.259298   0.495093           +
            +C           132          0.777844   0.222051   0.495304           +
            +C           133          0.852001   0.370385   0.494732           +
            +C           134          0.777948   0.333273   0.495066           +
            +C           135          0.852108   0.481584   0.495122           +
            +C           136          0.777770   0.444351   0.495686           +
            +C           137          0.852097   0.592853   0.496079           +
            +C           138          0.777931   0.555721   0.496969           +
            +C           139          0.852114   0.703922   0.496675           +
            +C           140          0.778044   0.666805   0.497559           +
            +C           141          0.852106   0.815001   0.496928           +
            +C           142          0.777882   0.777852   0.497760           +
            +C           143          0.851989   0.926097   0.496934           +
            +C           144          0.777869   0.889076   0.497589           +
            +C           145          0.963055   0.036892   0.496563           +
            +C           146          0.888948  -0.000260   0.496610           +
            +C           147          0.963084   0.148083   0.496142           +
            +C           148          0.888972   0.110868   0.496046           +
            +C           149          0.963032   0.259192   0.495371           +
            +C           150          0.889146   0.222082   0.495330           +
            +C           151          0.963166   0.370346   0.494720           +
            +C           152          0.889031   0.333167   0.494790           +
            +C           153          0.963153   0.481669   0.494802           +
            +C           154          0.889023   0.444501   0.494756           +
            +C           155          0.963038   0.592746   0.495390           +
            +C           156          0.889163   0.555670   0.495459           +
            +C           157          0.963196   0.703949   0.496119           +
            +C           158          0.889098   0.666786   0.496261           +
            +C           159          0.963173   0.815134   0.496652           +
            +C           160          0.889085   0.778000   0.496656           +
            +C           161          0.962910   0.925977   0.496754           +
            +C           162          0.888991   0.888996   0.496783           +
            ++++++++++++++++++++++++++++++++++++++++++++++++++++++++++++++++++++
                           Forces: Cartesian components: eV/A                          
            ++++++++++++++++++++++++++++++++++++++++++++++++++++++++++++++++++++
            +  Element    Atom                                                 +
            +            Number           x          y          z              +
            ++++++++++++++++++++++++++++++++++++++++++++++++++++++++++++++++++++
            +H             1          0.002646  -0.003194  -0.011341           +
            +H             2         -0.001894   0.003478  -0.011256           +
            +C             1         -0.001547   0.000279  -0.001055           +
            +C             2         -0.004974  -0.003045   0.007128           +
            +C             3         -0.001246  -0.002682   0.004985           +
            +C             4          0.000773  -0.000186  -0.003847           +
            +C             5         -0.006731   0.000870  -0.001787           +
            +C             6          0.000992   0.001907  -0.009055           +
            +C             7         -0.008915   0.010702  -0.000550           +
            +C             8          0.005419  -0.000178   0.001167           +
            +C             9         -0.002910   0.007518   0.001676           +
            +C            10          0.004324  -0.004878  -0.000460           +
            +C            11          0.000364  -0.001535  -0.002069           +
            +C            12         -0.000456  -0.006828  -0.009727           +
            +C            13          0.003322  -0.005971  -0.002268           +
            +C            14         -0.005574   0.003031   0.003191           +
            +C            15          0.002190  -0.008094   0.006794           +
            +C            16         -0.002606   0.007693  -0.001176           +
            +C            17         -0.003037   0.002823  -0.003203           +
            +C            18          0.002416   0.000307  -0.003988           +
            +C            19         -0.007462   0.001966  -0.001602           +
            +C            20          0.005358  -0.004348   0.002113           +
            +C            21          0.000530  -0.008002   0.010572           +
            +C            22         -0.000231   0.000726  -0.001761           +
            +C            23         -0.000601   0.005291   0.002867           +
            +C            24          0.005963   0.000701   0.003794           +
            +C            25         -0.005524   0.011894   0.010403           +
            +C            26          0.010413  -0.006582   0.002387           +
            +C            27         -0.001789   0.012041   0.002951           +
            +C            28          0.005092  -0.013393   0.000501           +
            +C            29         -0.000235  -0.000355  -0.008570           +
            +C            30          0.000846  -0.000725  -0.005191           +
            +C            31          0.002145  -0.004795  -0.003901           +
            +C            32         -0.000432   0.002731   0.001401           +
            +C            33          0.003035  -0.004886   0.002700           +
            +C            34         -0.003404   0.005356  -0.001289           +
            +C            35         -0.001615   0.001417  -0.009732           +
            +C            36          0.002380   0.001297  -0.000835           +
            +C            37         -0.002571   0.002549  -0.002160           +
            +C            38          0.003829  -0.004882  -0.008492           +
            +C            39         -0.005019   0.001821   0.004114           +
            +C            40         -0.000453  -0.001624   0.005238           +
            +C            41          0.001777   0.001681   0.005599           +
            +C            42         -0.004899  -0.003526   0.009821           +
            +C            43          0.005331   0.005903   0.002404           +
            +C            44         -0.000583  -0.011124   0.001535           +
            +C            45         -0.000161   0.018401   0.000261           +
            +C            46          0.003364  -0.017642   0.009959           +
            +C            47          0.006047   0.005521   0.001988           +
            +C            48         -0.002345  -0.006298  -0.003358           +
            +C            49          0.008257  -0.000614  -0.005054           +
            +C            50         -0.000887  -0.002655  -0.010331           +
            +C            51          0.005471  -0.001042  -0.005642           +
            +C            52         -0.001493   0.005518  -0.001345           +
            +C            53         -0.000889   0.004074  -0.004888           +
            +C            54          0.000394  -0.000584  -0.003801           +
            +C            55         -0.003001   0.003408  -0.000902           +
            +C            56          0.001973  -0.005580   0.002297           +
            +C            57         -0.006609  -0.005435   0.011350           +
            +C            58          0.009538  -0.002533   0.002994           +
            +C            59         -0.006272   0.002012   0.005890           +
            +C            60          0.002023  -0.001481   0.005213           +
            +C            61         -0.001278  -0.001881   0.017298           +
            +C            62         -0.004676  -0.003490   0.001599           +
            +C            63          0.000677   0.009071   0.003195           +
            +C            64          0.001082  -0.010716   0.002051           +
            +C            65         -0.000577   0.014940   0.009910           +
            +C            66         -0.000852  -0.016368   0.000439           +
            +C            67          0.003074   0.002855  -0.001146           +
            +C            68         -0.005671  -0.004218   0.004140           +
            +C            69          0.001143  -0.001502   0.007960           +
            +C            70         -0.002005   0.002135  -0.002577           +
            +C            71          0.000678   0.009691   0.002155           +
            +C            72         -0.000956  -0.002486  -0.005401           +
            +C            73         -0.004496   0.005772  -0.000842           +
            +C            74          0.007621  -0.006439   0.007098           +
            +C            75         -0.003442   0.000342   0.003175           +
            +C            76          0.004226  -0.001519   0.000772           +
            +C            77         -0.001222   0.004321   0.002145           +
            +C            78          0.006550  -0.004106   0.011385           +
            +C            79         -0.005221   0.003993   0.003023           +
            +C            80          0.004011  -0.001987   0.002574           +
            +C            81          0.000002   0.007559   0.001497           +
            +C            82         -0.000280   0.000651   0.017172           +
            +C            83          0.000092   0.011913   0.004431           +
            +C            84         -0.001063  -0.010578   0.008286           +
            +C            85         -0.000274   0.003658   0.005779           +
            +C            86         -0.000096  -0.004263   0.010695           +
            +C            87          0.004792  -0.001033   0.002021           +
            +C            88         -0.003301   0.004041   0.000459           +
            +C            89          0.002279   0.008785  -0.004474           +
            +C            90         -0.000940  -0.004205   0.003286           +
            +C            91         -0.001024   0.003828  -0.003551           +
            +C            92         -0.000235  -0.008625  -0.007085           +
            +C            93         -0.003822   0.002208  -0.009526           +
            +C            94          0.001390  -0.001950  -0.004263           +
            +C            95         -0.000010  -0.003380  -0.004393           +
            +C            96         -0.002932   0.002441   0.001465           +
            +C            97         -0.000188   0.008982   0.008717           +
            +C            98         -0.000546  -0.007590  -0.000332           +
            +C            99          0.002094   0.015167   0.000384           +
            +C           100         -0.003404  -0.006934   0.003799           +
            +C           101          0.003310   0.012742   0.009689           +
            +C           102         -0.000336  -0.011167   0.004510           +
            +C           103          0.001772   0.001631   0.004077           +
            +C           104          0.000445  -0.008137   0.004642           +
            +C           105          0.001170   0.000271  -0.008458           +
[...]
             C 121 -- C 141                 -0.17        2.47800
             C 46  -- C 64                  -0.17        2.47804
             C 76  -- C 94                  -0.17        2.47809
             C 49  -- C 67                  -0.17        2.47825
             C 79  -- C 97                  -0.17        2.47834
             C 100 -- C 118                 -0.17        2.47835
             C 116 -- C 134                 -0.17        2.47848
             C 118 -- C 136                 -0.17        2.47867
             C 25  -- C 43                  -0.17        2.47872
             C 97  -- C 115                 -0.17        2.47872
             C 5   -- C 25                  -0.17        2.47886
             C 119 -- C 137                 -0.17        2.47898
             C 46  -- C 48                  -0.17        2.47924
             C 96  -- C 114                 -0.17        2.47932
             C 95  -- C 97                  -0.17        2.47933
             C 24  -- C 44                  -0.17        2.47959
             C 67  -- C 69                  -0.17        2.47982
             C 29  -- C 47                  -0.17        2.47984
             C 118 -- C 138                 -0.17        2.48003
             C 96  -- C 98                  -0.17        2.48095
             C 94  -- C 96                  -0.17        2.48109
             C 45  -- C 47                  -0.17        2.48129
             C 5   -- C 23                  -0.17        2.48139
             C 119 -- C 139                 -0.17        2.48149
             C 77  -- C 95                  -0.17        2.48153
             C 48  -- C 66                  -0.17        2.48163
             C 99  -- C 119                 -0.17        2.48195
             C 120 -- C 138                 -0.17        2.48208
             C 47  -- C 49                  -0.17        2.48209
             C 21  -- C 41                  -0.17        2.48259
             C 102 -- C 122                 -0.17        2.48289
             C 57  -- C 59                  -0.17        2.48315
             C 84  -- C 86                  -0.17        2.48382
             C 26  -- C 44                  -0.17        2.48403
             C 98  -- C 116                 -0.17        2.48535
             C 99  -- C 117                 -0.17        2.48568
             C 63  -- C 81                  -0.16        2.48574
             C 27  -- C 45                  -0.17        2.48576
             C 62  -- C 80                  -0.16        2.48824
             C 62  -- C 64                  -0.17        2.49166
             C 43  -- C 63                  -0.17        2.49180
             C 79  -- C 81                  -0.17        2.49214
             C 80  -- C 100                 -0.17        2.49254
             C 82  -- C 100                 -0.18        2.49440
             C 64  -- C 82                  -0.18        2.49449
             C 43  -- C 61                  -0.18        2.49669
             C 61  -- C 79                  -0.18        2.49734
             C 80  -- C 82                  -0.14        2.53843
             C 62  -- C 82                  -0.14        2.53857
             C 61  -- C 63                  -0.14        2.53960
             C 61  -- C 81                  -0.14        2.53997
             C 44  -- C 45                  -0.10        2.84063
             C 98  -- C 99                  -0.10        2.84077
             C 55  -- C 72                  -0.10        2.84186
             C 16  -- C 139                 -0.10        2.84228
             C 32  -- C 155                 -0.10        2.84271
             C 91  -- C 108                 -0.10        2.84303
             C 73  -- C 90                  -0.10        2.84330
             C 109 -- C 126                 -0.10        2.84379
             C 10  -- C 133                 -0.10        2.84384
             C 37  -- C 54                  -0.10        2.84393
             C 12  -- C 135                 -0.10        2.84448
             C 30  -- C 153                 -0.10        2.84462
             C 2   -- C 17                  -0.10        2.84499
             C 19  -- C 36                  -0.10        2.84526
             C 59  -- C 98                  -0.10        2.84551
             C 56  -- C 71                  -0.10        2.84559
             C 34  -- C 157                 -0.10        2.84562
             C 127 -- C 144                 -0.10        2.84565
             C 21  -- C 24                  -0.10        2.84565
             C 145 -- C 148                 -0.10        2.84579
             C 41  -- C 44                  -0.10        2.84579
             C 8   -- C 131                 -0.10        2.84586
             C 45  -- C 84                  -0.10        2.84601
             C 4   -- C 127                 -0.10        2.84604
             C 99  -- C 102                 -0.10        2.84614
             C 20  -- C 161                 -0.10        2.84621
             C 57  -- C 96                  -0.10        2.84628
             C 119 -- C 122                 -0.10        2.84628
             C 123 -- C 162                 -0.10        2.84636
             C 110 -- C 125                 -0.10        2.84637
             C 47  -- C 86                  -0.10        2.84656
             C 36  -- C 159                 -0.10        2.84714
             C 1   -- C 18                  -0.10        2.84726
             C 107 -- C 128                 -0.10        2.84734
             C 14  -- C 137                 -0.10        2.84741
             C 41  -- C 80                  -0.09        2.84764
             C 53  -- C 74                  -0.10        2.84808
             C 63  -- C 102                 -0.10        2.84814
             C 23  -- C 62                  -0.10        2.84816
             C 26  -- C 27                  -0.10        2.84820
             C 81  -- C 84                  -0.10        2.84820
             C 157 -- C 160                 -0.10        2.84821
             C 20  -- C 35                  -0.10        2.84826
             C 87  -- C 90                  -0.10        2.84830
             C 33  -- C 36                  -0.10        2.84831
             C 18  -- C 141                 -0.10        2.84845
             C 22  -- C 23                  -0.10        2.84847
             C 146 -- C 161                 -0.10        2.84857
             C 128 -- C 143                 -0.10        2.84861
             C 116 -- C 117                 -0.10        2.84867
             C 6   -- C 7                   -0.10        2.84900
             C 145 -- C 162                 -0.10        2.84901
             C 92  -- C 107                 -0.10        2.84921
             C 77  -- C 80                  -0.10        2.84927
             C 28  -- C 151                 -0.10        2.84929
             C 38  -- C 53                  -0.10        2.84936
             C 11  -- C 14                  -0.10        2.84937
             C 59  -- C 62                  -0.09        2.84941
             C 15  -- C 18                  -0.10        2.84945
             C 91  -- C 94                  -0.10        2.84950
             C 21  -- C 60                  -0.10        2.84985
             C 6   -- C 129                 -0.10        2.84988
             C 92  -- C 93                  -0.10        2.84991
             C 49  -- C 52                  -0.10        2.85014
             C 89  -- C 110                 -0.10        2.85017
             C 3   -- C 6                   -0.10        2.85027
             C 146 -- C 147                 -0.10        2.85032
             C 158 -- C 159                 -0.10        2.85035
             C 39  -- C 78                  -0.10        2.85036
             C 13  -- C 16                  -0.10        2.85050
             C 160 -- C 161                 -0.10        2.85056
             C 63  -- C 66                  -0.10        2.85058
             C 81  -- C 120                 -0.10        2.85063
             C 120 -- C 121                 -0.10        2.85066
             C 74  -- C 89                  -0.10        2.85070
             C 5   -- C 8                   -0.10        2.85080
             C 147 -- C 150                 -0.10        2.85088
             C 125 -- C 146                 -0.10        2.85092
             C 129 -- C 132                 -0.10        2.85094
             C 37  -- C 76                  -0.10        2.85106
             C 2   -- C 143                 -0.10        2.85110
             C 2   -- C 3                   -0.10        2.85114
             C 76  -- C 77                  -0.10        2.85114
             C 83  -- C 122                 -0.10        2.85119
             C 141 -- C 144                 -0.10        2.85119
             C 19  -- C 58                  -0.10        2.85124
             C 151 -- C 154                 -0.10        2.85131
             C 35  -- C 56                  -0.10        2.85131
             C 26  -- C 149                 -0.10        2.85142
             C 73  -- C 112                 -0.10        2.85154
             C 149 -- C 152                 -0.10        2.85157
             C 51  -- C 54                  -0.10        2.85157
             C 71  -- C 92                  -0.10        2.85158
             C 1   -- C 40                  -0.10        2.85163
             C 88  -- C 89                  -0.10        2.85166
             C 105 -- C 144                 -0.10        2.85174
             C 69  -- C 108                 -0.10        2.85176
             C 4   -- C 5                   -0.10        2.85176
             C 17  -- C 38                  -0.10        2.85183
             C 85  -- C 124                 -0.10        2.85187
             C 66  -- C 67                  -0.10        2.85194
             C 19  -- C 22                  -0.10        2.85197
             C 127 -- C 130                 -0.10        2.85198
             C 42  -- C 43                  -0.10        2.85211
             C 65  -- C 104                 -0.10        2.85212
             C 9   -- C 12                  -0.10        2.85213
             C 15  -- C 54                  -0.10        2.85213
             C 57  -- C 60                  -0.10        2.85221
             C 136 -- C 137                 -0.10        2.85225
             C 83  -- C 86                  -0.10        2.85231
             C 142 -- C 143                 -0.10        2.85232
             C 155 -- C 158                 -0.10        2.85234
             C 153 -- C 156                 -0.10        2.85235
             C 101 -- C 104                 -0.10        2.85243
             C 1   -- C 4                   -0.10        2.85250
             C 152 -- C 153                 -0.10        2.85254
             C 105 -- C 108                 -0.10        2.85254
             C 67  -- C 106                 -0.10        2.85254
             C 31  -- C 34                  -0.10        2.85258
             C 103 -- C 142                 -0.10        2.85265
             C 39  -- C 42                  -0.10        2.85266
             C 121 -- C 124                 -0.10        2.85272
             C 137 -- C 140                 -0.10        2.85274
             C 87  -- C 126                 -0.10        2.85281
             C 106 -- C 107                 -0.10        2.85287
             C 28  -- C 29                  -0.10        2.85287
             C 37  -- C 40                  -0.10        2.85289
             C 114 -- C 115                 -0.10        2.85295
             C 109 -- C 112                 -0.10        2.85300
             C 78  -- C 79                  -0.10        2.85306
             C 135 -- C 138                 -0.10        2.85307
             C 31  -- C 70                  -0.10        2.85310
             C 16  -- C 17                  -0.10        2.85315
             C 100 -- C 101                 -0.10        2.85317
             C 52  -- C 53                  -0.10        2.85318
             C 70  -- C 71                  -0.10        2.85320
             C 69  -- C 72                  -0.10        2.85322
             C 159 -- C 162                 -0.10        2.85326
             C 103 -- C 106                 -0.10        2.85327
             C 123 -- C 126                 -0.10        2.85329
             C 24  -- C 25                  -0.10        2.85342
             C 55  -- C 58                  -0.10        2.85349
             C 34  -- C 35                  -0.10        2.85352
             C 111 -- C 150                 -0.10        2.85358
             C 131 -- C 134                 -0.10        2.85361
             C 64  -- C 65                  -0.10        2.85372
             C 124 -- C 125                 -0.10        2.85379
             C 154 -- C 155                 -0.10        2.85383
             C 9   -- C 48                  -0.10        2.85396
             C 3   -- C 42                  -0.10        2.85401
             C 8   -- C 9                   -0.10        2.85401
             C 12  -- C 13                  -0.10        2.85404
             C 74  -- C 75                  -0.10        2.85413
             C 10  -- C 11                  -0.10        2.85417
             C 150 -- C 151                 -0.10        2.85421
             C 139 -- C 142                 -0.10        2.85443
             C 85  -- C 88                  -0.10        2.85446
             C 82  -- C 83                  -0.10        2.85462
             C 75  -- C 114                 -0.10        2.85465
             C 118 -- C 119                 -0.10        2.85472
             C 110 -- C 111                 -0.10        2.85479
             C 55  -- C 94                  -0.10        2.85496
             C 101 -- C 140                 -0.10        2.85499
             C 75  -- C 78                  -0.10        2.85500
             C 96  -- C 97                  -0.10        2.85505
             C 50  -- C 51                  -0.10        2.85506
             C 156 -- C 157                 -0.10        2.85513
             C 113 -- C 152                 -0.10        2.85513
             C 29  -- C 68                  -0.10        2.85515
             C 128 -- C 129                 -0.10        2.85520
             C 46  -- C 47                  -0.10        2.85545
             C 13  -- C 52                  -0.10        2.85545
             C 11  -- C 50                  -0.10        2.85549
             C 65  -- C 68                  -0.10        2.85551
             C 95  -- C 134                 -0.10        2.85561
             C 138 -- C 139                 -0.10        2.85569
             C 91  -- C 130                 -0.10        2.85574
             C 148 -- C 149                 -0.10        2.85587
             C 49  -- C 88                  -0.10        2.85590
             C 109 -- C 148                 -0.10        2.85591
             C 29  -- C 32                  -0.10        2.85591
             C 7   -- C 10                  -0.10        2.85611
             C 51  -- C 90                  -0.10        2.85620
             C 33  -- C 72                  -0.10        2.85621
             C 130 -- C 131                 -0.10        2.85627
             C 20  -- C 21                  -0.10        2.85634
             C 22  -- C 145                 -0.10        2.85644
             C 94  -- C 95                  -0.10        2.85645
             C 56  -- C 57                  -0.10        2.85646
             C 24  -- C 147                 -0.10        2.85664
             C 140 -- C 141                 -0.10        2.85674
             C 93  -- C 132                 -0.10        2.85681
             C 60  -- C 61                  -0.10        2.85683
             C 23  -- C 26                  -0.10        2.85695
             C 25  -- C 28                  -0.10        2.85697
             C 111 -- C 114                 -0.10        2.85704
             C 38  -- C 39                  -0.10        2.85705
             C 132 -- C 133                 -0.10        2.85721
             C 134 -- C 135                 -0.10        2.85725
             C 14  -- C 15                  -0.10        2.85733
             C 48  -- C 49                  -0.10        2.85761
             C 133 -- C 136                 -0.10        2.85802
             C 7   -- C 46                  -0.10        2.85826
             C 112 -- C 113                 -0.10        2.85842
             C 117 -- C 120                 -0.10        2.85849
             C 115 -- C 118                 -0.10        2.85850
             C 115 -- C 154                 -0.10        2.85883
             C 30  -- C 31                  -0.10        2.85891
             C 27  -- C 30                  -0.10        2.85900
             C 27  -- C 66                  -0.09        2.85914
             C 68  -- C 69                  -0.10        2.85920
             C 77  -- C 116                 -0.09        2.85925
             C 32  -- C 33                  -0.10        2.85960
             C 97  -- C 136                 -0.10        2.85961
             C 117 -- C 156                 -0.10        2.86000
             C 113 -- C 116                 -0.10        2.86013
             C 73  -- C 76                  -0.10        2.86035
             C 121 -- C 160                 -0.10        2.86047
             C 25  -- C 64                  -0.10        2.86053
             C 97  -- C 100                 -0.10        2.86070
             C 43  -- C 46                  -0.10        2.86073
             C 104 -- C 105                 -0.10        2.86089
             C 67  -- C 70                  -0.10        2.86133
             C 122 -- C 123                 -0.10        2.86133
             C 79  -- C 118                 -0.10        2.86139
             C 86  -- C 87                  -0.10        2.86172
             C 119 -- C 158                 -0.10        2.86353
             C 93  -- C 96                  -0.10        2.86367
             C 47  -- C 50                  -0.10        2.86393
             C 40  -- C 41                  -0.10        2.86490
             C 58  -- C 59                  -0.10        2.86520
             C 102 -- C 103                 -0.10        2.86590
             C 84  -- C 85                  -0.10        2.86642
             C 5   -- C 44                  -0.09        2.87277
             C 95  -- C 98                  -0.09        2.87354
             C 45  -- C 48                  -0.09        2.87372
             C 99  -- C 138                 -0.09        2.87459
             C 62  -- C 63                  -0.07        2.89393
             C 80  -- C 81                  -0.07        2.89422
             C 43  -- C 82                  -0.07        2.89568
             C 79  -- C 82                  -0.07        2.89637
             C 61  -- C 64                  -0.07        2.89891
             C 61  -- C 100                 -0.07        2.89909
               H 2 -- C 63                  -0.04        2.94446
               H 2 -- C 81                  -0.04        2.94463
               H 1 -- C 62                  -0.04        2.96397
               H 1 -- C 80                  -0.04        2.96418
======================================================================
 

Writing analysis data to 9x9.castep_bin

Writing model to 9x9.check
 
 A BibTeX formatted list of references used in this run has been written to 
 9x9.bib
 
Initialisation time =      3.81 s
Calculation time    =   7834.93 s
Finalisation time   =      4.39 s
Total time          =   7843.13 s
Peak Memory Use     = 1052532 kB
  
Overall parallel efficiency rating: Poor (43%)                                  
  
Data was distributed by:-
G-vector (128-way); efficiency rating: Poor (43%)                               
